<LesHouchesEvents version="3.0">
<header>
<!--
#*********************************************************************
#                                                                    *
#                        MadGraph5_aMC@NLO                           *
#                                                                    *
#                           Going Beyond                             *
#                                                                    *
#                   http://madgraph.hep.uiuc.edu                     *
#                   http://madgraph.phys.ucl.ac.be                   *
#                   http://amcatnlo.cern.ch                          *
#                                                                    *
#                     The MadGraph5_aMC@NLO team                     *
#                                                                    *
#....................................................................*
#                                                                    *
# This file contains all the information necessary to reproduce      *
# the events generated:                                              *
#                                                                    *
# 1. software version                                                *
# 2. proc_card          : code generation info including model       *
# 3. param_card         : model primary parameters in the LH format  *
# 4. run_card           : running parameters (collider and cuts)     *
# 5. pythia_card        : present only if pythia has been run        *
# 6. pgs_card           : present only if pgs has been run           *
# 7. delphes_cards      : present only if delphes has been run       *
#                                                                    *
#                                                                    *
#*********************************************************************
-->
<MGVersion>
2.6.0
</MGVersion>
<MG5ProcCard>
<![CDATA[
#************************************************************                                                                                         
#*                     MadGraph5_aMC@NLO                    *                                                                                         
#*                                                          *                                                                                         
#*                *                       *                 *                                                                                         
#*                  *        * *        *                   *                                                                                         
#*                    * * * * 5 * * * *                     *                                                                                         
#*                  *        * *        *                   *                                                                                         
#*                *                       *                 *                                                                                         
#*                                                          *                                                                                         
#*                                                          *                                                                                         
#*         VERSION 2.6.0                 2017-08-16         *                                                                                         
#*                                                          *                                                                                         
#*    The MadGraph5_aMC@NLO Development Team - Find us at   *                                                                                         
#*    https://server06.fynu.ucl.ac.be/projects/madgraph     *                                                                                         
#*                                                          *                                                                                         
#************************************************************                                                                                         
#*                                                          *                                                                                         
#*               Command File for MadGraph5_aMC@NLO         *                                                                                         
#*                                                          *                                                                                         
#*     run as ./bin/mg5_aMC  filename                       *                                                                                         
#*                                                          *                                                                                         
#************************************************************                                                                                         
set group_subprocesses Auto                                                                                                                           
set ignore_six_quark_processes False                                                                                                                  
set loop_optimized_output True                                                                                                                        
set loop_color_flows False                                                                                                                            
set gauge unitary                                                                                                                                     
set complex_mass_scheme False                                                                                                                         
set max_npoint_for_channel 0                                                                                                                          
import model EWdim6NLO-no_cmass_cwwwcbcw                                                                                                              
define p = g u c d s u~ c~ d~ s~                                                                                                                      
define j = g u c d s u~ c~ d~ s~                                                                                                                      
define l+ = e+ mu+                                                                                                                                    
define l- = e- mu-                                                                                                                                    
define vl = ve vm vt                                                                                                                                  
define vl~ = ve~ vm~ vt~                                                                                                                              
define p = 21 2 4 1 3 -2 -4 -1 -3 5 -5 # pass to 5 flavors                                                                                            
define j = p                                                                                                                                          
define p = p b b~                                                                                                                                     
define j = j b b~                                                                                                                                     
define lep = e+ mu+ ta+ e- mu- ta-                                                                                                                    
define nu = ve vm vt ve~ vm~ vt~                                                                                                                      
generate p p > lep nu a [QCD] @0                                                                                                                      
add process p p > lep nu j a [QCD] @1                                                                                                                 
output WATolnujj_01j_aTGC_NLO -nojpeg
]]>
</MG5ProcCard>
<MGRunCard>
<![CDATA[
#***********************************************************************                                                                              
#                        MadGraph5_aMC@NLO                             *                                                                              
#                                                                      *                                                                              
#                      run_card.dat aMC@NLO                            *                                                                              
#                                                                      *                                                                              
#  This file is used to set the parameters of the run.                 *                                                                              
#                                                                      *                                                                              
#  Some notation/conventions:                                          *                                                                              
#                                                                      *                                                                              
#   Lines starting with a hash (#) are info or comments                *                                                                              
#                                                                      *                                                                              
#   mind the format:   value    = variable     ! comment               *                                                                              
#                                                                      *                                                                              
#   Some of the values of variables can be list. These can either be   *                                                                              
#   comma or space separated.                                          *                                                                              
#***********************************************************************                                                                              
#                                                                                                                                                     
#*******************                                                                                                                                  
# Running parameters                                                                                                                                  
#*******************                                                                                                                                  
#                                                                                                                                                     
#***********************************************************************                                                                              
# Tag name for the run (one word)                                      *                                                                              
#***********************************************************************                                                                              
  tag_1	= run_tag ! name of the run                                                                                                                   
#***********************************************************************                                                                              
# Number of LHE events (and their normalization) and the required      *                                                                              
# (relative) accuracy on the Xsec.                                     *                                                                              
# These values are ignored for fixed order runs                        *                                                                              
#***********************************************************************                                                                              
         10 = nevents                                                                                                                                 
  0.001	= req_acc ! Required accuracy (-1=auto determined from nevents)                                                                               
  10	= nevt_job ! Max number of events per job in event generation.                                                                                   
                 !  (-1= no split).                                                                                                                   
#***********************************************************************                                                                              
# Normalize the weights of LHE events such that they sum or average to *                                                                              
# the total cross section                                              *                                                                              
#***********************************************************************                                                                              
  average	= event_norm ! valid settings: average, sum, bias                                                                                           
#***********************************************************************                                                                              
# Number of points per itegration channel (ignored for aMC@NLO runs)   *                                                                              
#***********************************************************************                                                                              
  0.01	= req_acc_fo ! Required accuracy (-1=ignored, and use the                                                                                      
 	                   ! number of points and iter. below)                                                                                              
# These numbers are ignored except if req_acc_FO is equal to -1                                                                                       
  5000	= npoints_fo_grid ! number of points to setup grids                                                                                            
  4	= niters_fo_grid ! number of iter. to setup grids                                                                                                 
  10000	= npoints_fo ! number of points to compute Xsec                                                                                               
  6	= niters_fo ! number of iter. to compute Xsec                                                                                                     
#***********************************************************************                                                                              
# Random number seed                                                   *                                                                              
#***********************************************************************                                                                              
          1 =  iseed                                                                                                                                  
#***********************************************************************                                                                              
# Collider type and energy                                             *                                                                              
#***********************************************************************                                                                              
  1	= lpp1 ! beam 1 type (0 = no PDF)                                                                                                                 
  1	= lpp2 ! beam 2 type (0 = no PDF)                                                                                                                 
  6500.0	= ebeam1 ! beam 1 energy in GeV                                                                                                              
  6500.0	= ebeam2 ! beam 2 energy in GeV                                                                                                              
#***********************************************************************                                                                              
# PDF choice: this automatically fixes also alpha_s(MZ) and its evol.  *                                                                              
#***********************************************************************                                                                              
  lhapdf	= pdlabel ! PDF set                                                                                                                          
  292200	= lhaid ! If pdlabel=lhapdf, this is the lhapdf number. Only                                                                                 
              ! numbers for central PDF sets are allowed. Can be a list;                                                                              
              ! PDF sets beyond the first are included via reweighting.                                                                               
#***********************************************************************                                                                              
# Include the NLO Monte Carlo subtr. terms for the following parton    *                                                                              
# shower (HERWIG6 | HERWIGPP | PYTHIA6Q | PYTHIA6PT | PYTHIA8)         *                                                                              
# WARNING: PYTHIA6PT works only for processes without FSR!!!!          *                                                                              
#***********************************************************************                                                                              
  PYTHIA8	= parton_shower                                                                                                                             
  1.0	= shower_scale_factor ! multiply default shower starting                                                                                        
                                  ! scale by this factor                                                                                              
#***********************************************************************                                                                              
# Renormalization and factorization scales                             *                                                                              
# (Default functional form for the non-fixed scales is the sum of      *                                                                              
# the transverse masses divided by two of all final state particles    *                                                                              
# and partons. This can be changed in SubProcesses/set_scales.f or via *                                                                              
# dynamical_scale_choice option)                                       *                                                                              
#***********************************************************************                                                                              
  False	= fixed_ren_scale ! if .true. use fixed ren scale                                                                                             
  False	= fixed_fac_scale ! if .true. use fixed fac scale                                                                                             
  91.188	= mur_ref_fixed ! fixed ren reference scale                                                                                                  
  91.188	= muf_ref_fixed ! fixed fact reference scale                                                                                                 
  -1	= dynamical_scale_choice ! Choose one (or more) of the predefined                                                                                
           ! dynamical choices. Can be a list; scale choices beyond the                                                                               
           ! first are included via reweighting                                                                                                       
  1.0	= mur_over_ref ! ratio of current muR over reference muR                                                                                        
  1.0	= muf_over_ref ! ratio of current muF over reference muF                                                                                        
#***********************************************************************                                                                              
# Reweight variables for scale dependence and PDF uncertainty          *                                                                              
#***********************************************************************                                                                              
  1.0, 2.0, 0.5	= rw_rscale ! muR factors to be included by reweighting                                                                               
  1.0, 2.0, 0.5	= rw_fscale ! muF factors to be included by reweighting                                                                               
  True	= reweight_scale ! Reweight to get scale variation using the                                                                                   
            ! rw_rscale and rw_fscale factors. Should be a list of                                                                                    
            ! booleans of equal length to dynamical_scale_choice to                                                                                   
            ! specify for which choice to include scale dependence.                                                                                   
  True	= reweight_pdf ! Reweight to get PDF uncertainty. Should be a                                                                                  
            ! list booleans of equal length to lhaid to specify for                                                                                   
            !  which PDF set to include the uncertainties.                                                                                            
#***********************************************************************                                                                              
# Store reweight information in the LHE file for off-line model-       *                                                                              
# parameter reweighting at NLO+PS accuracy                             *                                                                              
#***********************************************************************                                                                              
  True	= store_rwgt_info ! Store info for reweighting in LHE file                                                                                     
#***********************************************************************                                                                              
# ickkw parameter:                                                     *                                                                              
#   0: No merging                                                      *                                                                              
#   3: FxFx Merging - WARNING! Applies merging only at the hard-event  *                                                                              
#      level. After showering an MLM-type merging should be applied as *                                                                              
#      well. See http://amcatnlo.cern.ch/FxFx_merging.htm for details. *                                                                              
#   4: UNLOPS merging (with pythia8 only). No interface from within    *                                                                              
#      MG5_aMC available, but available in Pythia8.                    *                                                                              
#  -1: NNLL+NLO jet-veto computation. See arxiv:1412.8408 [hep-ph].    *                                                                              
#***********************************************************************                                                                              
  3	= ickkw                                                                                                                                           
#***********************************************************************                                                                              
#                                                                                                                                                     
#***********************************************************************                                                                              
# BW cutoff (M+/-bwcutoff*Gamma). Determines which resonances are      *                                                                              
# written in the LHE event file                                        *                                                                              
#***********************************************************************                                                                              
  15.0	= bwcutoff                                                                                                                                     
#***********************************************************************                                                                              
# Cuts on the jets. Jet clustering is performed by FastJet.            *                                                                              
#  - When matching to a parton shower, these generation cuts should be *                                                                              
#    considerably softer than the analysis cuts.                       *                                                                              
#  - More specific cuts can be specified in SubProcesses/cuts.f        *                                                                              
#***********************************************************************                                                                              
  1.0	= jetalgo ! FastJet jet algorithm (1=kT, 0=C/A, -1=anti-kT)                                                                                     
  1.0	= jetradius ! The radius parameter for the jet algorithm                                                                                        
  10.0	= ptj ! Min jet transverse momentum                                                                                                            
  -1.0	= etaj ! Max jet abs(pseudo-rap) (a value .lt.0 means no cut)                                                                                  
#***********************************************************************                                                                              
# Cuts on the charged leptons (e+, e-, mu+, mu-, tau+ and tau-)        *                                                                              
# More specific cuts can be specified in SubProcesses/cuts.f           *                                                                              
#***********************************************************************                                                                              
  0.0	= ptl ! Min lepton transverse momentum                                                                                                          
  -1.0	= etal ! Max lepton abs(pseudo-rap) (a value .lt.0 means no cut)                                                                               
  0.0	= drll ! Min distance between opposite sign lepton pairs                                                                                        
  0.0	= drll_sf ! Min distance between opp. sign same-flavor lepton pairs                                                                             
  0.0	= mll ! Min inv. mass of all opposite sign lepton pairs                                                                                         
  30.0	= mll_sf ! Min inv. mass of all opp. sign same-flavor lepton pairs                                                                             
#***********************************************************************                                                                              
# Photon-isolation cuts, according to hep-ph/9801442. When ptgmin=0,   *                                                                              
# all the other parameters are ignored.                                *                                                                              
# More specific cuts can be specified in SubProcesses/cuts.f           *                                                                              
#***********************************************************************                                                                              
  15.0	= ptgmin ! Min photon transverse momentum                                                                                                      
  2.6	= etagamma ! Max photon abs(pseudo-rap)                                                                                                         
  0.05	= r0gamma ! Radius of isolation code                                                                                                           
  1.0	= xn ! n parameter of eq.(3.4) in hep-ph/9801442                                                                                                
  1.0	= epsgamma ! epsilon_gamma parameter of eq.(3.4) in hep-ph/9801442                                                                              
  True	= isoem ! isolate photons from EM energy (photons and leptons)                                                                                 
#***********************************************************************                                                                              
# For aMCfast+APPLGRID use in PDF fitting (http://amcfast.hepforge.org)*                                                                              
#***********************************************************************                                                                              
  0	= iappl ! aMCfast switch (0=OFF, 1=prepare grids, 2=fill grids)                                                                                   
#***********************************************************************                                                                              
#*********************************************************************                                                                                
#  Additional parameter                                                                                                                               
#*********************************************************************                                                                                
  292201	= pdf_set_min # hidden parameter                                                                                                             
  292302	= pdf_set_max # hidden parameter                                                                                                             
  4	= maxjetflavor # hidden parameter
]]>
</MGRunCard>
<slha>
######################################################################                                                                                
## PARAM_CARD AUTOMATICALY GENERATED BY MG5                       ####                                                                                
######################################################################                                                                                
###################################                                                                                                                   
## INFORMATION FOR DIM6                                                                                                                               
###################################                                                                                                                   
BLOCK DIM6 #                                                                                                                                          
      1 2.500000e+01 # cwwwl2                                                                                                                         
      2 2.400000e+02 # cwl2                                                                                                                           
      3 2.400000e+02 # cbl2                                                                                                                           
      4 1.200000e+01 # cpwwwl2                                                                                                                        
      5 1.200000e+02 # cpwl2                                                                                                                          
###################################                                                                                                                   
## INFORMATION FOR LOOP                                                                                                                               
###################################                                                                                                                   
BLOCK LOOP #                                                                                                                                          
      1 9.118800e+01 # mu_r                                                                                                                           
###################################                                                                                                                   
## INFORMATION FOR MASS                                                                                                                               
###################################                                                                                                                   
BLOCK MASS #                                                                                                                                          
      6 1.730000e+02 # mt                                                                                                                             
      23 9.118800e+01 # mz                                                                                                                            
      25 1.250000e+02 # mh                                                                                                                            
      1 0.000000e+00 # d : 0.0                                                                                                                        
      2 0.000000e+00 # u : 0.0                                                                                                                        
      3 0.000000e+00 # s : 0.0                                                                                                                        
      4 0.000000e+00 # c : 0.0                                                                                                                        
      5 0.000000e+00 # b : 0.0                                                                                                                        
      11 0.000000e+00 # e- : 0.0                                                                                                                      
      12 0.000000e+00 # ve : 0.0                                                                                                                      
      13 0.000000e+00 # mu- : 0.0                                                                                                                     
      14 0.000000e+00 # vm : 0.0                                                                                                                      
      15 0.000000e+00 # ta- : 0.0                                                                                                                     
      16 0.000000e+00 # vt : 0.0                                                                                                                      
      21 0.000000e+00 # g : 0.0                                                                                                                       
      22 0.000000e+00 # a : 0.0                                                                                                                       
      24 8.041900e+01 # w+ : cmath.sqrt(mz__exp__2/2. + cmath.sqrt(mz__exp__4/4. - (aew*cmath.pi*mz__exp__2)/(gf*sqrt__2)))                           
      9000002 9.118800e+01 # ghz : mz                                                                                                                 
      9000003 8.041900e+01 # ghwp : mw                                                                                                                
      9000004 8.041900e+01 # ghwm : mw                                                                                                                
###################################                                                                                                                   
## INFORMATION FOR SMINPUTS                                                                                                                           
###################################                                                                                                                   
BLOCK SMINPUTS #                                                                                                                                      
      1 1.325070e+02 # aewm1                                                                                                                          
      2 1.166390e-05 # gf                                                                                                                             
      3 1.180000e-01 # as                                                                                                                             
###################################                                                                                                                   
## INFORMATION FOR YUKAWA                                                                                                                             
###################################                                                                                                                   
BLOCK YUKAWA #                                                                                                                                        
      6 1.730000e+02 # ymt                                                                                                                            
      15 1.777000e+00 # ymtau                                                                                                                         
###################################                                                                                                                   
## INFORMATION FOR DECAY                                                                                                                              
###################################                                                                                                                   
DECAY 6 1.491500e+00 # wt                                                                                                                             
DECAY 23 2.441404e+00 # wz                                                                                                                            
DECAY 24 2.047600e+00 # ww                                                                                                                            
DECAY 25 6.382339e-03 # wh                                                                                                                            
DECAY 1 0.000000e+00 # d : 0.0                                                                                                                        
DECAY 2 0.000000e+00 # u : 0.0                                                                                                                        
DECAY 3 0.000000e+00 # s : 0.0                                                                                                                        
DECAY 4 0.000000e+00 # c : 0.0                                                                                                                        
DECAY 5 0.000000e+00 # b : 0.0                                                                                                                        
DECAY 11 0.000000e+00 # e- : 0.0                                                                                                                      
DECAY 12 0.000000e+00 # ve : 0.0                                                                                                                      
DECAY 13 0.000000e+00 # mu- : 0.0                                                                                                                     
DECAY 14 0.000000e+00 # vm : 0.0                                                                                                                      
DECAY 15 0.000000e+00 # ta- : 0.0                                                                                                                     
DECAY 16 0.000000e+00 # vt : 0.0                                                                                                                      
DECAY 21 0.000000e+00 # g : 0.0                                                                                                                       
DECAY 22 0.000000e+00 # a : 0.0
</slha>
<montecarlomasses>
1   0.000000E+00
       2   0.000000E+00
       3   0.000000E+00
       4   0.000000E+00
       5   0.000000E+00
      11   0.000000E+00
      13   0.000000E+00
      15   0.000000E+00
      21   0.000000E+00
</montecarlomasses>
<initrwgt>
<![CDATA[
<weightgroup name='scale_variation   -1' combine='envelope'>
      <weight id='1001'> dyn=  -1 muR=0.10000E+01 muF=0.10000E+01 </weight>
      <weight id='1002'> dyn=  -1 muR=0.20000E+01 muF=0.10000E+01 </weight>
      <weight id='1003'> dyn=  -1 muR=0.50000E+00 muF=0.10000E+01 </weight>
      <weight id='1004'> dyn=  -1 muR=0.10000E+01 muF=0.20000E+01 </weight>
      <weight id='1005'> dyn=  -1 muR=0.20000E+01 muF=0.20000E+01 </weight>
      <weight id='1006'> dyn=  -1 muR=0.50000E+00 muF=0.20000E+01 </weight>
      <weight id='1007'> dyn=  -1 muR=0.10000E+01 muF=0.50000E+00 </weight>
      <weight id='1008'> dyn=  -1 muR=0.20000E+01 muF=0.50000E+00 </weight>
      <weight id='1009'> dyn=  -1 muR=0.50000E+00 muF=0.50000E+00 </weight>
    </weightgroup>
    <weightgroup name='PDF_variation NNPDF30_nlo_nf_5_pdfas' combine='unknown'>
      <weight id='1010'> PDF=  292200 NNPDF30_nlo_nf_5_pdfas </weight>
      <weight id='1011'> PDF=  292201 NNPDF30_nlo_nf_5_pdfas </weight>
      <weight id='1012'> PDF=  292202 NNPDF30_nlo_nf_5_pdfas </weight>
      <weight id='1013'> PDF=  292203 NNPDF30_nlo_nf_5_pdfas </weight>
      <weight id='1014'> PDF=  292204 NNPDF30_nlo_nf_5_pdfas </weight>
      <weight id='1015'> PDF=  292205 NNPDF30_nlo_nf_5_pdfas </weight>
      <weight id='1016'> PDF=  292206 NNPDF30_nlo_nf_5_pdfas </weight>
      <weight id='1017'> PDF=  292207 NNPDF30_nlo_nf_5_pdfas </weight>
      <weight id='1018'> PDF=  292208 NNPDF30_nlo_nf_5_pdfas </weight>
      <weight id='1019'> PDF=  292209 NNPDF30_nlo_nf_5_pdfas </weight>
      <weight id='1020'> PDF=  292210 NNPDF30_nlo_nf_5_pdfas </weight>
      <weight id='1021'> PDF=  292211 NNPDF30_nlo_nf_5_pdfas </weight>
      <weight id='1022'> PDF=  292212 NNPDF30_nlo_nf_5_pdfas </weight>
      <weight id='1023'> PDF=  292213 NNPDF30_nlo_nf_5_pdfas </weight>
      <weight id='1024'> PDF=  292214 NNPDF30_nlo_nf_5_pdfas </weight>
      <weight id='1025'> PDF=  292215 NNPDF30_nlo_nf_5_pdfas </weight>
      <weight id='1026'> PDF=  292216 NNPDF30_nlo_nf_5_pdfas </weight>
      <weight id='1027'> PDF=  292217 NNPDF30_nlo_nf_5_pdfas </weight>
      <weight id='1028'> PDF=  292218 NNPDF30_nlo_nf_5_pdfas </weight>
      <weight id='1029'> PDF=  292219 NNPDF30_nlo_nf_5_pdfas </weight>
      <weight id='1030'> PDF=  292220 NNPDF30_nlo_nf_5_pdfas </weight>
      <weight id='1031'> PDF=  292221 NNPDF30_nlo_nf_5_pdfas </weight>
      <weight id='1032'> PDF=  292222 NNPDF30_nlo_nf_5_pdfas </weight>
      <weight id='1033'> PDF=  292223 NNPDF30_nlo_nf_5_pdfas </weight>
      <weight id='1034'> PDF=  292224 NNPDF30_nlo_nf_5_pdfas </weight>
      <weight id='1035'> PDF=  292225 NNPDF30_nlo_nf_5_pdfas </weight>
      <weight id='1036'> PDF=  292226 NNPDF30_nlo_nf_5_pdfas </weight>
      <weight id='1037'> PDF=  292227 NNPDF30_nlo_nf_5_pdfas </weight>
      <weight id='1038'> PDF=  292228 NNPDF30_nlo_nf_5_pdfas </weight>
      <weight id='1039'> PDF=  292229 NNPDF30_nlo_nf_5_pdfas </weight>
      <weight id='1040'> PDF=  292230 NNPDF30_nlo_nf_5_pdfas </weight>
      <weight id='1041'> PDF=  292231 NNPDF30_nlo_nf_5_pdfas </weight>
      <weight id='1042'> PDF=  292232 NNPDF30_nlo_nf_5_pdfas </weight>
      <weight id='1043'> PDF=  292233 NNPDF30_nlo_nf_5_pdfas </weight>
      <weight id='1044'> PDF=  292234 NNPDF30_nlo_nf_5_pdfas </weight>
      <weight id='1045'> PDF=  292235 NNPDF30_nlo_nf_5_pdfas </weight>
      <weight id='1046'> PDF=  292236 NNPDF30_nlo_nf_5_pdfas </weight>
      <weight id='1047'> PDF=  292237 NNPDF30_nlo_nf_5_pdfas </weight>
      <weight id='1048'> PDF=  292238 NNPDF30_nlo_nf_5_pdfas </weight>
      <weight id='1049'> PDF=  292239 NNPDF30_nlo_nf_5_pdfas </weight>
      <weight id='1050'> PDF=  292240 NNPDF30_nlo_nf_5_pdfas </weight>
      <weight id='1051'> PDF=  292241 NNPDF30_nlo_nf_5_pdfas </weight>
      <weight id='1052'> PDF=  292242 NNPDF30_nlo_nf_5_pdfas </weight>
      <weight id='1053'> PDF=  292243 NNPDF30_nlo_nf_5_pdfas </weight>
      <weight id='1054'> PDF=  292244 NNPDF30_nlo_nf_5_pdfas </weight>
      <weight id='1055'> PDF=  292245 NNPDF30_nlo_nf_5_pdfas </weight>
      <weight id='1056'> PDF=  292246 NNPDF30_nlo_nf_5_pdfas </weight>
      <weight id='1057'> PDF=  292247 NNPDF30_nlo_nf_5_pdfas </weight>
      <weight id='1058'> PDF=  292248 NNPDF30_nlo_nf_5_pdfas </weight>
      <weight id='1059'> PDF=  292249 NNPDF30_nlo_nf_5_pdfas </weight>
      <weight id='1060'> PDF=  292250 NNPDF30_nlo_nf_5_pdfas </weight>
      <weight id='1061'> PDF=  292251 NNPDF30_nlo_nf_5_pdfas </weight>
      <weight id='1062'> PDF=  292252 NNPDF30_nlo_nf_5_pdfas </weight>
      <weight id='1063'> PDF=  292253 NNPDF30_nlo_nf_5_pdfas </weight>
      <weight id='1064'> PDF=  292254 NNPDF30_nlo_nf_5_pdfas </weight>
      <weight id='1065'> PDF=  292255 NNPDF30_nlo_nf_5_pdfas </weight>
      <weight id='1066'> PDF=  292256 NNPDF30_nlo_nf_5_pdfas </weight>
      <weight id='1067'> PDF=  292257 NNPDF30_nlo_nf_5_pdfas </weight>
      <weight id='1068'> PDF=  292258 NNPDF30_nlo_nf_5_pdfas </weight>
      <weight id='1069'> PDF=  292259 NNPDF30_nlo_nf_5_pdfas </weight>
      <weight id='1070'> PDF=  292260 NNPDF30_nlo_nf_5_pdfas </weight>
      <weight id='1071'> PDF=  292261 NNPDF30_nlo_nf_5_pdfas </weight>
      <weight id='1072'> PDF=  292262 NNPDF30_nlo_nf_5_pdfas </weight>
      <weight id='1073'> PDF=  292263 NNPDF30_nlo_nf_5_pdfas </weight>
      <weight id='1074'> PDF=  292264 NNPDF30_nlo_nf_5_pdfas </weight>
      <weight id='1075'> PDF=  292265 NNPDF30_nlo_nf_5_pdfas </weight>
      <weight id='1076'> PDF=  292266 NNPDF30_nlo_nf_5_pdfas </weight>
      <weight id='1077'> PDF=  292267 NNPDF30_nlo_nf_5_pdfas </weight>
      <weight id='1078'> PDF=  292268 NNPDF30_nlo_nf_5_pdfas </weight>
      <weight id='1079'> PDF=  292269 NNPDF30_nlo_nf_5_pdfas </weight>
      <weight id='1080'> PDF=  292270 NNPDF30_nlo_nf_5_pdfas </weight>
      <weight id='1081'> PDF=  292271 NNPDF30_nlo_nf_5_pdfas </weight>
      <weight id='1082'> PDF=  292272 NNPDF30_nlo_nf_5_pdfas </weight>
      <weight id='1083'> PDF=  292273 NNPDF30_nlo_nf_5_pdfas </weight>
      <weight id='1084'> PDF=  292274 NNPDF30_nlo_nf_5_pdfas </weight>
      <weight id='1085'> PDF=  292275 NNPDF30_nlo_nf_5_pdfas </weight>
      <weight id='1086'> PDF=  292276 NNPDF30_nlo_nf_5_pdfas </weight>
      <weight id='1087'> PDF=  292277 NNPDF30_nlo_nf_5_pdfas </weight>
      <weight id='1088'> PDF=  292278 NNPDF30_nlo_nf_5_pdfas </weight>
      <weight id='1089'> PDF=  292279 NNPDF30_nlo_nf_5_pdfas </weight>
      <weight id='1090'> PDF=  292280 NNPDF30_nlo_nf_5_pdfas </weight>
      <weight id='1091'> PDF=  292281 NNPDF30_nlo_nf_5_pdfas </weight>
      <weight id='1092'> PDF=  292282 NNPDF30_nlo_nf_5_pdfas </weight>
      <weight id='1093'> PDF=  292283 NNPDF30_nlo_nf_5_pdfas </weight>
      <weight id='1094'> PDF=  292284 NNPDF30_nlo_nf_5_pdfas </weight>
      <weight id='1095'> PDF=  292285 NNPDF30_nlo_nf_5_pdfas </weight>
      <weight id='1096'> PDF=  292286 NNPDF30_nlo_nf_5_pdfas </weight>
      <weight id='1097'> PDF=  292287 NNPDF30_nlo_nf_5_pdfas </weight>
      <weight id='1098'> PDF=  292288 NNPDF30_nlo_nf_5_pdfas </weight>
      <weight id='1099'> PDF=  292289 NNPDF30_nlo_nf_5_pdfas </weight>
      <weight id='1100'> PDF=  292290 NNPDF30_nlo_nf_5_pdfas </weight>
      <weight id='1101'> PDF=  292291 NNPDF30_nlo_nf_5_pdfas </weight>
      <weight id='1102'> PDF=  292292 NNPDF30_nlo_nf_5_pdfas </weight>
      <weight id='1103'> PDF=  292293 NNPDF30_nlo_nf_5_pdfas </weight>
      <weight id='1104'> PDF=  292294 NNPDF30_nlo_nf_5_pdfas </weight>
      <weight id='1105'> PDF=  292295 NNPDF30_nlo_nf_5_pdfas </weight>
      <weight id='1106'> PDF=  292296 NNPDF30_nlo_nf_5_pdfas </weight>
      <weight id='1107'> PDF=  292297 NNPDF30_nlo_nf_5_pdfas </weight>
      <weight id='1108'> PDF=  292298 NNPDF30_nlo_nf_5_pdfas </weight>
      <weight id='1109'> PDF=  292299 NNPDF30_nlo_nf_5_pdfas </weight>
      <weight id='1110'> PDF=  292300 NNPDF30_nlo_nf_5_pdfas </weight>
      <weight id='1111'> PDF=  292301 NNPDF30_nlo_nf_5_pdfas </weight>
      <weight id='1112'> PDF=  292302 NNPDF30_nlo_nf_5_pdfas </weight>
    </weightgroup>

<weightgroup name='mg_reweighting'>
<weight id='rwgt_1'>set param_card dim6 1 5.0 # orig: 25.0
set param_card dim6 2 0.0 # orig: 240.0
set param_card dim6 3 0.0 # orig: 240.0
set param_card dim6 4 0.0 # orig: 12.0
set param_card dim6 5 0.0 # orig: 120.0
</weight>
<weight id='rwgt_2'>set param_card dim6 1 -5.0 # orig: 25.0
set param_card dim6 2 0.0 # orig: 240.0
set param_card dim6 3 0.0 # orig: 240.0
set param_card dim6 4 0.0 # orig: 12.0
set param_card dim6 5 0.0 # orig: 120.0
</weight>
<weight id='rwgt_3'>set param_card dim6 1 15.0 # orig: 25.0
set param_card dim6 2 0.0 # orig: 240.0
set param_card dim6 3 0.0 # orig: 240.0
set param_card dim6 4 0.0 # orig: 12.0
set param_card dim6 5 0.0 # orig: 120.0
</weight>
<weight id='rwgt_4'>set param_card dim6 1 -15.0 # orig: 25.0
set param_card dim6 2 0.0 # orig: 240.0
set param_card dim6 3 0.0 # orig: 240.0
set param_card dim6 4 0.0 # orig: 12.0
set param_card dim6 5 0.0 # orig: 120.0
</weight>
<weight id='rwgt_5'>set param_card dim6 1 -25.0 # orig: 25.0
set param_card dim6 2 0.0 # orig: 240.0
set param_card dim6 3 0.0 # orig: 240.0
set param_card dim6 4 0.0 # orig: 12.0
set param_card dim6 5 0.0 # orig: 120.0
</weight>
<weight id='rwgt_6'>set param_card dim6 2 0.0 # orig: 240.0
set param_card dim6 3 0.0 # orig: 240.0
set param_card dim6 4 0.0 # orig: 12.0
set param_card dim6 5 0.0 # orig: 120.0
</weight>
<weight id='rwgt_7'>set param_card dim6 1 0.0 # orig: 25.0
set param_card dim6 2 80.0 # orig: 240.0
set param_card dim6 3 0.0 # orig: 240.0
set param_card dim6 4 0.0 # orig: 12.0
set param_card dim6 5 0.0 # orig: 120.0
</weight>
<weight id='rwgt_8'>set param_card dim6 1 0.0 # orig: 25.0
set param_card dim6 2 -80.0 # orig: 240.0
set param_card dim6 3 0.0 # orig: 240.0
set param_card dim6 4 0.0 # orig: 12.0
set param_card dim6 5 0.0 # orig: 120.0
</weight>
<weight id='rwgt_9'>set param_card dim6 1 0.0 # orig: 25.0
set param_card dim6 2 160.0 # orig: 240.0
set param_card dim6 3 0.0 # orig: 240.0
set param_card dim6 4 0.0 # orig: 12.0
set param_card dim6 5 0.0 # orig: 120.0
</weight>
<weight id='rwgt_10'>set param_card dim6 1 0.0 # orig: 25.0
set param_card dim6 2 -160.0 # orig: 240.0
set param_card dim6 3 0.0 # orig: 240.0
set param_card dim6 4 0.0 # orig: 12.0
set param_card dim6 5 0.0 # orig: 120.0
</weight>
<weight id='rwgt_11'>set param_card dim6 1 0.0 # orig: 25.0
set param_card dim6 3 0.0 # orig: 240.0
set param_card dim6 4 0.0 # orig: 12.0
set param_card dim6 5 0.0 # orig: 120.0
</weight>
<weight id='rwgt_12'>set param_card dim6 1 0.0 # orig: 25.0
set param_card dim6 2 -240.0 # orig: 240.0
set param_card dim6 3 0.0 # orig: 240.0
set param_card dim6 4 0.0 # orig: 12.0
set param_card dim6 5 0.0 # orig: 120.0
</weight>
<weight id='rwgt_13'>set param_card dim6 1 0.0 # orig: 25.0
set param_card dim6 2 0.0 # orig: 240.0
set param_card dim6 3 80.0 # orig: 240.0
set param_card dim6 4 0.0 # orig: 12.0
set param_card dim6 5 0.0 # orig: 120.0
</weight>
<weight id='rwgt_14'>set param_card dim6 1 0.0 # orig: 25.0
set param_card dim6 2 0.0 # orig: 240.0
set param_card dim6 3 -80.0 # orig: 240.0
set param_card dim6 4 0.0 # orig: 12.0
set param_card dim6 5 0.0 # orig: 120.0
</weight>
<weight id='rwgt_15'>set param_card dim6 1 0.0 # orig: 25.0
set param_card dim6 2 0.0 # orig: 240.0
set param_card dim6 3 160.0 # orig: 240.0
set param_card dim6 4 0.0 # orig: 12.0
set param_card dim6 5 0.0 # orig: 120.0
</weight>
<weight id='rwgt_16'>set param_card dim6 1 0.0 # orig: 25.0
set param_card dim6 2 0.0 # orig: 240.0
set param_card dim6 3 -160.0 # orig: 240.0
set param_card dim6 4 0.0 # orig: 12.0
set param_card dim6 5 0.0 # orig: 120.0
</weight>
<weight id='rwgt_17'>set param_card dim6 1 0.0 # orig: 25.0
set param_card dim6 2 0.0 # orig: 240.0
set param_card dim6 4 0.0 # orig: 12.0
set param_card dim6 5 0.0 # orig: 120.0
</weight>
<weight id='rwgt_18'>set param_card dim6 1 0.0 # orig: 25.0
set param_card dim6 2 0.0 # orig: 240.0
set param_card dim6 3 -240.0 # orig: 240.0
set param_card dim6 4 0.0 # orig: 12.0
set param_card dim6 5 0.0 # orig: 120.0
</weight>
<weight id='rwgt_19'>set param_card dim6 1 0.0 # orig: 25.0
set param_card dim6 2 0.0 # orig: 240.0
set param_card dim6 3 0.0 # orig: 240.0
set param_card dim6 4 4.0 # orig: 12.0
set param_card dim6 5 0.0 # orig: 120.0
</weight>
<weight id='rwgt_20'>set param_card dim6 1 0.0 # orig: 25.0
set param_card dim6 2 0.0 # orig: 240.0
set param_card dim6 3 0.0 # orig: 240.0
set param_card dim6 4 -4.0 # orig: 12.0
set param_card dim6 5 0.0 # orig: 120.0
</weight>
<weight id='rwgt_21'>set param_card dim6 1 0.0 # orig: 25.0
set param_card dim6 2 0.0 # orig: 240.0
set param_card dim6 3 0.0 # orig: 240.0
set param_card dim6 4 8.0 # orig: 12.0
set param_card dim6 5 0.0 # orig: 120.0
</weight>
<weight id='rwgt_22'>set param_card dim6 1 0.0 # orig: 25.0
set param_card dim6 2 0.0 # orig: 240.0
set param_card dim6 3 0.0 # orig: 240.0
set param_card dim6 4 -8.0 # orig: 12.0
set param_card dim6 5 0.0 # orig: 120.0
</weight>
<weight id='rwgt_23'>set param_card dim6 1 0.0 # orig: 25.0
set param_card dim6 2 0.0 # orig: 240.0
set param_card dim6 3 0.0 # orig: 240.0
set param_card dim6 5 0.0 # orig: 120.0
</weight>
<weight id='rwgt_24'>set param_card dim6 1 0.0 # orig: 25.0
set param_card dim6 2 0.0 # orig: 240.0
set param_card dim6 3 0.0 # orig: 240.0
set param_card dim6 4 -12.0 # orig: 12.0
set param_card dim6 5 0.0 # orig: 120.0
</weight>
<weight id='rwgt_25'>set param_card dim6 1 0.0 # orig: 25.0
set param_card dim6 2 0.0 # orig: 240.0
set param_card dim6 3 0.0 # orig: 240.0
set param_card dim6 4 0.0 # orig: 12.0
set param_card dim6 5 40.0 # orig: 120.0
</weight>
<weight id='rwgt_26'>set param_card dim6 1 0.0 # orig: 25.0
set param_card dim6 2 0.0 # orig: 240.0
set param_card dim6 3 0.0 # orig: 240.0
set param_card dim6 4 0.0 # orig: 12.0
set param_card dim6 5 -40.0 # orig: 120.0
</weight>
<weight id='rwgt_27'>set param_card dim6 1 0.0 # orig: 25.0
set param_card dim6 2 0.0 # orig: 240.0
set param_card dim6 3 0.0 # orig: 240.0
set param_card dim6 4 0.0 # orig: 12.0
set param_card dim6 5 80.0 # orig: 120.0
</weight>
<weight id='rwgt_28'>set param_card dim6 1 0.0 # orig: 25.0
set param_card dim6 2 0.0 # orig: 240.0
set param_card dim6 3 0.0 # orig: 240.0
set param_card dim6 4 0.0 # orig: 12.0
set param_card dim6 5 -80.0 # orig: 120.0
</weight>
<weight id='rwgt_29'>set param_card dim6 1 0.0 # orig: 25.0
set param_card dim6 2 0.0 # orig: 240.0
set param_card dim6 3 0.0 # orig: 240.0
set param_card dim6 4 0.0 # orig: 12.0
</weight>
<weight id='rwgt_30'>set param_card dim6 1 0.0 # orig: 25.0
set param_card dim6 2 0.0 # orig: 240.0
set param_card dim6 3 0.0 # orig: 240.0
set param_card dim6 4 0.0 # orig: 12.0
set param_card dim6 5 -120.0 # orig: 120.0
</weight>
<weight id='rwgt_31'>set param_card dim6 1 5.0 # orig: 25.0
set param_card dim6 2 80.0 # orig: 240.0
set param_card dim6 3 80.0 # orig: 240.0
set param_card dim6 4 0.0 # orig: 12.0
set param_card dim6 5 0.0 # orig: 120.0
</weight>
<weight id='rwgt_32'>set param_card dim6 1 5.0 # orig: 25.0
set param_card dim6 2 80.0 # orig: 240.0
set param_card dim6 3 -80.0 # orig: 240.0
set param_card dim6 4 0.0 # orig: 12.0
set param_card dim6 5 0.0 # orig: 120.0
</weight>
<weight id='rwgt_33'>set param_card dim6 1 5.0 # orig: 25.0
set param_card dim6 2 -80.0 # orig: 240.0
set param_card dim6 3 80.0 # orig: 240.0
set param_card dim6 4 0.0 # orig: 12.0
set param_card dim6 5 0.0 # orig: 120.0
</weight>
<weight id='rwgt_34'>set param_card dim6 1 5.0 # orig: 25.0
set param_card dim6 2 -80.0 # orig: 240.0
set param_card dim6 3 -80.0 # orig: 240.0
set param_card dim6 4 0.0 # orig: 12.0
set param_card dim6 5 0.0 # orig: 120.0
</weight>
<weight id='rwgt_35'>set param_card dim6 1 5.0 # orig: 25.0
set param_card dim6 2 80.0 # orig: 240.0
set param_card dim6 3 160.0 # orig: 240.0
set param_card dim6 4 0.0 # orig: 12.0
set param_card dim6 5 0.0 # orig: 120.0
</weight>
<weight id='rwgt_36'>set param_card dim6 1 5.0 # orig: 25.0
set param_card dim6 2 80.0 # orig: 240.0
set param_card dim6 3 -160.0 # orig: 240.0
set param_card dim6 4 0.0 # orig: 12.0
set param_card dim6 5 0.0 # orig: 120.0
</weight>
<weight id='rwgt_37'>set param_card dim6 1 5.0 # orig: 25.0
set param_card dim6 2 -80.0 # orig: 240.0
set param_card dim6 3 160.0 # orig: 240.0
set param_card dim6 4 0.0 # orig: 12.0
set param_card dim6 5 0.0 # orig: 120.0
</weight>
<weight id='rwgt_38'>set param_card dim6 1 5.0 # orig: 25.0
set param_card dim6 2 -80.0 # orig: 240.0
set param_card dim6 3 -160.0 # orig: 240.0
set param_card dim6 4 0.0 # orig: 12.0
set param_card dim6 5 0.0 # orig: 120.0
</weight>
<weight id='rwgt_39'>set param_card dim6 1 5.0 # orig: 25.0
set param_card dim6 2 80.0 # orig: 240.0
set param_card dim6 4 0.0 # orig: 12.0
set param_card dim6 5 0.0 # orig: 120.0
</weight>
<weight id='rwgt_40'>set param_card dim6 1 5.0 # orig: 25.0
set param_card dim6 2 80.0 # orig: 240.0
set param_card dim6 3 -240.0 # orig: 240.0
set param_card dim6 4 0.0 # orig: 12.0
set param_card dim6 5 0.0 # orig: 120.0
</weight>
<weight id='rwgt_41'>set param_card dim6 1 5.0 # orig: 25.0
set param_card dim6 2 -80.0 # orig: 240.0
set param_card dim6 4 0.0 # orig: 12.0
set param_card dim6 5 0.0 # orig: 120.0
</weight>
<weight id='rwgt_42'>set param_card dim6 1 5.0 # orig: 25.0
set param_card dim6 2 -80.0 # orig: 240.0
set param_card dim6 3 -240.0 # orig: 240.0
set param_card dim6 4 0.0 # orig: 12.0
set param_card dim6 5 0.0 # orig: 120.0
</weight>
<weight id='rwgt_43'>set param_card dim6 1 5.0 # orig: 25.0
set param_card dim6 2 80.0 # orig: 240.0
set param_card dim6 3 0.0 # orig: 240.0
set param_card dim6 4 0.0 # orig: 12.0
set param_card dim6 5 0.0 # orig: 120.0
</weight>
<weight id='rwgt_44'>set param_card dim6 1 5.0 # orig: 25.0
set param_card dim6 2 -80.0 # orig: 240.0
set param_card dim6 3 0.0 # orig: 240.0
set param_card dim6 4 0.0 # orig: 12.0
set param_card dim6 5 0.0 # orig: 120.0
</weight>
<weight id='rwgt_45'>set param_card dim6 1 5.0 # orig: 25.0
set param_card dim6 2 160.0 # orig: 240.0
set param_card dim6 3 80.0 # orig: 240.0
set param_card dim6 4 0.0 # orig: 12.0
set param_card dim6 5 0.0 # orig: 120.0
</weight>
<weight id='rwgt_46'>set param_card dim6 1 5.0 # orig: 25.0
set param_card dim6 2 160.0 # orig: 240.0
set param_card dim6 3 -80.0 # orig: 240.0
set param_card dim6 4 0.0 # orig: 12.0
set param_card dim6 5 0.0 # orig: 120.0
</weight>
<weight id='rwgt_47'>set param_card dim6 1 5.0 # orig: 25.0
set param_card dim6 2 -160.0 # orig: 240.0
set param_card dim6 3 80.0 # orig: 240.0
set param_card dim6 4 0.0 # orig: 12.0
set param_card dim6 5 0.0 # orig: 120.0
</weight>
<weight id='rwgt_48'>set param_card dim6 1 5.0 # orig: 25.0
set param_card dim6 2 -160.0 # orig: 240.0
set param_card dim6 3 -80.0 # orig: 240.0
set param_card dim6 4 0.0 # orig: 12.0
set param_card dim6 5 0.0 # orig: 120.0
</weight>
<weight id='rwgt_49'>set param_card dim6 1 5.0 # orig: 25.0
set param_card dim6 2 160.0 # orig: 240.0
set param_card dim6 3 160.0 # orig: 240.0
set param_card dim6 4 0.0 # orig: 12.0
set param_card dim6 5 0.0 # orig: 120.0
</weight>
<weight id='rwgt_50'>set param_card dim6 1 5.0 # orig: 25.0
set param_card dim6 2 160.0 # orig: 240.0
set param_card dim6 3 -160.0 # orig: 240.0
set param_card dim6 4 0.0 # orig: 12.0
set param_card dim6 5 0.0 # orig: 120.0
</weight>
<weight id='rwgt_51'>set param_card dim6 1 5.0 # orig: 25.0
set param_card dim6 2 -160.0 # orig: 240.0
set param_card dim6 3 160.0 # orig: 240.0
set param_card dim6 4 0.0 # orig: 12.0
set param_card dim6 5 0.0 # orig: 120.0
</weight>
<weight id='rwgt_52'>set param_card dim6 1 5.0 # orig: 25.0
set param_card dim6 2 -160.0 # orig: 240.0
set param_card dim6 3 -160.0 # orig: 240.0
set param_card dim6 4 0.0 # orig: 12.0
set param_card dim6 5 0.0 # orig: 120.0
</weight>
<weight id='rwgt_53'>set param_card dim6 1 5.0 # orig: 25.0
set param_card dim6 2 160.0 # orig: 240.0
set param_card dim6 4 0.0 # orig: 12.0
set param_card dim6 5 0.0 # orig: 120.0
</weight>
<weight id='rwgt_54'>set param_card dim6 1 5.0 # orig: 25.0
set param_card dim6 2 160.0 # orig: 240.0
set param_card dim6 3 -240.0 # orig: 240.0
set param_card dim6 4 0.0 # orig: 12.0
set param_card dim6 5 0.0 # orig: 120.0
</weight>
<weight id='rwgt_55'>set param_card dim6 1 5.0 # orig: 25.0
set param_card dim6 2 -160.0 # orig: 240.0
set param_card dim6 4 0.0 # orig: 12.0
set param_card dim6 5 0.0 # orig: 120.0
</weight>
<weight id='rwgt_56'>set param_card dim6 1 5.0 # orig: 25.0
set param_card dim6 2 -160.0 # orig: 240.0
set param_card dim6 3 -240.0 # orig: 240.0
set param_card dim6 4 0.0 # orig: 12.0
set param_card dim6 5 0.0 # orig: 120.0
</weight>
<weight id='rwgt_57'>set param_card dim6 1 5.0 # orig: 25.0
set param_card dim6 2 160.0 # orig: 240.0
set param_card dim6 3 0.0 # orig: 240.0
set param_card dim6 4 0.0 # orig: 12.0
set param_card dim6 5 0.0 # orig: 120.0
</weight>
<weight id='rwgt_58'>set param_card dim6 1 5.0 # orig: 25.0
set param_card dim6 2 -160.0 # orig: 240.0
set param_card dim6 3 0.0 # orig: 240.0
set param_card dim6 4 0.0 # orig: 12.0
set param_card dim6 5 0.0 # orig: 120.0
</weight>
<weight id='rwgt_59'>set param_card dim6 1 5.0 # orig: 25.0
set param_card dim6 3 80.0 # orig: 240.0
set param_card dim6 4 0.0 # orig: 12.0
set param_card dim6 5 0.0 # orig: 120.0
</weight>
<weight id='rwgt_60'>set param_card dim6 1 5.0 # orig: 25.0
set param_card dim6 3 -80.0 # orig: 240.0
set param_card dim6 4 0.0 # orig: 12.0
set param_card dim6 5 0.0 # orig: 120.0
</weight>
<weight id='rwgt_61'>set param_card dim6 1 5.0 # orig: 25.0
set param_card dim6 2 -240.0 # orig: 240.0
set param_card dim6 3 80.0 # orig: 240.0
set param_card dim6 4 0.0 # orig: 12.0
set param_card dim6 5 0.0 # orig: 120.0
</weight>
<weight id='rwgt_62'>set param_card dim6 1 5.0 # orig: 25.0
set param_card dim6 2 -240.0 # orig: 240.0
set param_card dim6 3 -80.0 # orig: 240.0
set param_card dim6 4 0.0 # orig: 12.0
set param_card dim6 5 0.0 # orig: 120.0
</weight>
<weight id='rwgt_63'>set param_card dim6 1 5.0 # orig: 25.0
set param_card dim6 3 160.0 # orig: 240.0
set param_card dim6 4 0.0 # orig: 12.0
set param_card dim6 5 0.0 # orig: 120.0
</weight>
<weight id='rwgt_64'>set param_card dim6 1 5.0 # orig: 25.0
set param_card dim6 3 -160.0 # orig: 240.0
set param_card dim6 4 0.0 # orig: 12.0
set param_card dim6 5 0.0 # orig: 120.0
</weight>
<weight id='rwgt_65'>set param_card dim6 1 5.0 # orig: 25.0
set param_card dim6 2 -240.0 # orig: 240.0
set param_card dim6 3 160.0 # orig: 240.0
set param_card dim6 4 0.0 # orig: 12.0
set param_card dim6 5 0.0 # orig: 120.0
</weight>
<weight id='rwgt_66'>set param_card dim6 1 5.0 # orig: 25.0
set param_card dim6 2 -240.0 # orig: 240.0
set param_card dim6 3 -160.0 # orig: 240.0
set param_card dim6 4 0.0 # orig: 12.0
set param_card dim6 5 0.0 # orig: 120.0
</weight>
<weight id='rwgt_67'>set param_card dim6 1 5.0 # orig: 25.0
set param_card dim6 4 0.0 # orig: 12.0
set param_card dim6 5 0.0 # orig: 120.0
</weight>
<weight id='rwgt_68'>set param_card dim6 1 5.0 # orig: 25.0
set param_card dim6 3 -240.0 # orig: 240.0
set param_card dim6 4 0.0 # orig: 12.0
set param_card dim6 5 0.0 # orig: 120.0
</weight>
<weight id='rwgt_69'>set param_card dim6 1 5.0 # orig: 25.0
set param_card dim6 2 -240.0 # orig: 240.0
set param_card dim6 4 0.0 # orig: 12.0
set param_card dim6 5 0.0 # orig: 120.0
</weight>
<weight id='rwgt_70'>set param_card dim6 1 5.0 # orig: 25.0
set param_card dim6 2 -240.0 # orig: 240.0
set param_card dim6 3 -240.0 # orig: 240.0
set param_card dim6 4 0.0 # orig: 12.0
set param_card dim6 5 0.0 # orig: 120.0
</weight>
<weight id='rwgt_71'>set param_card dim6 1 5.0 # orig: 25.0
set param_card dim6 3 0.0 # orig: 240.0
set param_card dim6 4 0.0 # orig: 12.0
set param_card dim6 5 0.0 # orig: 120.0
</weight>
<weight id='rwgt_72'>set param_card dim6 1 5.0 # orig: 25.0
set param_card dim6 2 -240.0 # orig: 240.0
set param_card dim6 3 0.0 # orig: 240.0
set param_card dim6 4 0.0 # orig: 12.0
set param_card dim6 5 0.0 # orig: 120.0
</weight>
<weight id='rwgt_73'>set param_card dim6 1 5.0 # orig: 25.0
set param_card dim6 2 0.0 # orig: 240.0
set param_card dim6 3 80.0 # orig: 240.0
set param_card dim6 4 0.0 # orig: 12.0
set param_card dim6 5 0.0 # orig: 120.0
</weight>
<weight id='rwgt_74'>set param_card dim6 1 5.0 # orig: 25.0
set param_card dim6 2 0.0 # orig: 240.0
set param_card dim6 3 -80.0 # orig: 240.0
set param_card dim6 4 0.0 # orig: 12.0
set param_card dim6 5 0.0 # orig: 120.0
</weight>
<weight id='rwgt_75'>set param_card dim6 1 5.0 # orig: 25.0
set param_card dim6 2 0.0 # orig: 240.0
set param_card dim6 3 160.0 # orig: 240.0
set param_card dim6 4 0.0 # orig: 12.0
set param_card dim6 5 0.0 # orig: 120.0
</weight>
<weight id='rwgt_76'>set param_card dim6 1 5.0 # orig: 25.0
set param_card dim6 2 0.0 # orig: 240.0
set param_card dim6 3 -160.0 # orig: 240.0
set param_card dim6 4 0.0 # orig: 12.0
set param_card dim6 5 0.0 # orig: 120.0
</weight>
<weight id='rwgt_77'>set param_card dim6 1 5.0 # orig: 25.0
set param_card dim6 2 0.0 # orig: 240.0
set param_card dim6 4 0.0 # orig: 12.0
set param_card dim6 5 0.0 # orig: 120.0
</weight>
<weight id='rwgt_78'>set param_card dim6 1 5.0 # orig: 25.0
set param_card dim6 2 0.0 # orig: 240.0
set param_card dim6 3 -240.0 # orig: 240.0
set param_card dim6 4 0.0 # orig: 12.0
set param_card dim6 5 0.0 # orig: 120.0
</weight>
<weight id='rwgt_79'>set param_card dim6 1 5.0 # orig: 25.0
set param_card dim6 2 0.0 # orig: 240.0
set param_card dim6 3 0.0 # orig: 240.0
set param_card dim6 4 0.0 # orig: 12.0
set param_card dim6 5 0.0 # orig: 120.0
</weight>
<weight id='rwgt_80'>set param_card dim6 1 -5.0 # orig: 25.0
set param_card dim6 2 80.0 # orig: 240.0
set param_card dim6 3 80.0 # orig: 240.0
set param_card dim6 4 0.0 # orig: 12.0
set param_card dim6 5 0.0 # orig: 120.0
</weight>
<weight id='rwgt_81'>set param_card dim6 1 -5.0 # orig: 25.0
set param_card dim6 2 80.0 # orig: 240.0
set param_card dim6 3 -80.0 # orig: 240.0
set param_card dim6 4 0.0 # orig: 12.0
set param_card dim6 5 0.0 # orig: 120.0
</weight>
<weight id='rwgt_82'>set param_card dim6 1 -5.0 # orig: 25.0
set param_card dim6 2 -80.0 # orig: 240.0
set param_card dim6 3 80.0 # orig: 240.0
set param_card dim6 4 0.0 # orig: 12.0
set param_card dim6 5 0.0 # orig: 120.0
</weight>
<weight id='rwgt_83'>set param_card dim6 1 -5.0 # orig: 25.0
set param_card dim6 2 -80.0 # orig: 240.0
set param_card dim6 3 -80.0 # orig: 240.0
set param_card dim6 4 0.0 # orig: 12.0
set param_card dim6 5 0.0 # orig: 120.0
</weight>
<weight id='rwgt_84'>set param_card dim6 1 -5.0 # orig: 25.0
set param_card dim6 2 80.0 # orig: 240.0
set param_card dim6 3 160.0 # orig: 240.0
set param_card dim6 4 0.0 # orig: 12.0
set param_card dim6 5 0.0 # orig: 120.0
</weight>
<weight id='rwgt_85'>set param_card dim6 1 -5.0 # orig: 25.0
set param_card dim6 2 80.0 # orig: 240.0
set param_card dim6 3 -160.0 # orig: 240.0
set param_card dim6 4 0.0 # orig: 12.0
set param_card dim6 5 0.0 # orig: 120.0
</weight>
<weight id='rwgt_86'>set param_card dim6 1 -5.0 # orig: 25.0
set param_card dim6 2 -80.0 # orig: 240.0
set param_card dim6 3 160.0 # orig: 240.0
set param_card dim6 4 0.0 # orig: 12.0
set param_card dim6 5 0.0 # orig: 120.0
</weight>
<weight id='rwgt_87'>set param_card dim6 1 -5.0 # orig: 25.0
set param_card dim6 2 -80.0 # orig: 240.0
set param_card dim6 3 -160.0 # orig: 240.0
set param_card dim6 4 0.0 # orig: 12.0
set param_card dim6 5 0.0 # orig: 120.0
</weight>
<weight id='rwgt_88'>set param_card dim6 1 -5.0 # orig: 25.0
set param_card dim6 2 80.0 # orig: 240.0
set param_card dim6 4 0.0 # orig: 12.0
set param_card dim6 5 0.0 # orig: 120.0
</weight>
<weight id='rwgt_89'>set param_card dim6 1 -5.0 # orig: 25.0
set param_card dim6 2 80.0 # orig: 240.0
set param_card dim6 3 -240.0 # orig: 240.0
set param_card dim6 4 0.0 # orig: 12.0
set param_card dim6 5 0.0 # orig: 120.0
</weight>
<weight id='rwgt_90'>set param_card dim6 1 -5.0 # orig: 25.0
set param_card dim6 2 -80.0 # orig: 240.0
set param_card dim6 4 0.0 # orig: 12.0
set param_card dim6 5 0.0 # orig: 120.0
</weight>
<weight id='rwgt_91'>set param_card dim6 1 -5.0 # orig: 25.0
set param_card dim6 2 -80.0 # orig: 240.0
set param_card dim6 3 -240.0 # orig: 240.0
set param_card dim6 4 0.0 # orig: 12.0
set param_card dim6 5 0.0 # orig: 120.0
</weight>
<weight id='rwgt_92'>set param_card dim6 1 -5.0 # orig: 25.0
set param_card dim6 2 80.0 # orig: 240.0
set param_card dim6 3 0.0 # orig: 240.0
set param_card dim6 4 0.0 # orig: 12.0
set param_card dim6 5 0.0 # orig: 120.0
</weight>
<weight id='rwgt_93'>set param_card dim6 1 -5.0 # orig: 25.0
set param_card dim6 2 -80.0 # orig: 240.0
set param_card dim6 3 0.0 # orig: 240.0
set param_card dim6 4 0.0 # orig: 12.0
set param_card dim6 5 0.0 # orig: 120.0
</weight>
<weight id='rwgt_94'>set param_card dim6 1 -5.0 # orig: 25.0
set param_card dim6 2 160.0 # orig: 240.0
set param_card dim6 3 80.0 # orig: 240.0
set param_card dim6 4 0.0 # orig: 12.0
set param_card dim6 5 0.0 # orig: 120.0
</weight>
<weight id='rwgt_95'>set param_card dim6 1 -5.0 # orig: 25.0
set param_card dim6 2 160.0 # orig: 240.0
set param_card dim6 3 -80.0 # orig: 240.0
set param_card dim6 4 0.0 # orig: 12.0
set param_card dim6 5 0.0 # orig: 120.0
</weight>
<weight id='rwgt_96'>set param_card dim6 1 -5.0 # orig: 25.0
set param_card dim6 2 -160.0 # orig: 240.0
set param_card dim6 3 80.0 # orig: 240.0
set param_card dim6 4 0.0 # orig: 12.0
set param_card dim6 5 0.0 # orig: 120.0
</weight>
<weight id='rwgt_97'>set param_card dim6 1 -5.0 # orig: 25.0
set param_card dim6 2 -160.0 # orig: 240.0
set param_card dim6 3 -80.0 # orig: 240.0
set param_card dim6 4 0.0 # orig: 12.0
set param_card dim6 5 0.0 # orig: 120.0
</weight>
<weight id='rwgt_98'>set param_card dim6 1 -5.0 # orig: 25.0
set param_card dim6 2 160.0 # orig: 240.0
set param_card dim6 3 160.0 # orig: 240.0
set param_card dim6 4 0.0 # orig: 12.0
set param_card dim6 5 0.0 # orig: 120.0
</weight>
<weight id='rwgt_99'>set param_card dim6 1 -5.0 # orig: 25.0
set param_card dim6 2 160.0 # orig: 240.0
set param_card dim6 3 -160.0 # orig: 240.0
set param_card dim6 4 0.0 # orig: 12.0
set param_card dim6 5 0.0 # orig: 120.0
</weight>
<weight id='rwgt_100'>set param_card dim6 1 -5.0 # orig: 25.0
set param_card dim6 2 -160.0 # orig: 240.0
set param_card dim6 3 160.0 # orig: 240.0
set param_card dim6 4 0.0 # orig: 12.0
set param_card dim6 5 0.0 # orig: 120.0
</weight>
<weight id='rwgt_101'>set param_card dim6 1 -5.0 # orig: 25.0
set param_card dim6 2 -160.0 # orig: 240.0
set param_card dim6 3 -160.0 # orig: 240.0
set param_card dim6 4 0.0 # orig: 12.0
set param_card dim6 5 0.0 # orig: 120.0
</weight>
<weight id='rwgt_102'>set param_card dim6 1 -5.0 # orig: 25.0
set param_card dim6 2 160.0 # orig: 240.0
set param_card dim6 4 0.0 # orig: 12.0
set param_card dim6 5 0.0 # orig: 120.0
</weight>
<weight id='rwgt_103'>set param_card dim6 1 -5.0 # orig: 25.0
set param_card dim6 2 160.0 # orig: 240.0
set param_card dim6 3 -240.0 # orig: 240.0
set param_card dim6 4 0.0 # orig: 12.0
set param_card dim6 5 0.0 # orig: 120.0
</weight>
<weight id='rwgt_104'>set param_card dim6 1 -5.0 # orig: 25.0
set param_card dim6 2 -160.0 # orig: 240.0
set param_card dim6 4 0.0 # orig: 12.0
set param_card dim6 5 0.0 # orig: 120.0
</weight>
<weight id='rwgt_105'>set param_card dim6 1 -5.0 # orig: 25.0
set param_card dim6 2 -160.0 # orig: 240.0
set param_card dim6 3 -240.0 # orig: 240.0
set param_card dim6 4 0.0 # orig: 12.0
set param_card dim6 5 0.0 # orig: 120.0
</weight>
<weight id='rwgt_106'>set param_card dim6 1 -5.0 # orig: 25.0
set param_card dim6 2 160.0 # orig: 240.0
set param_card dim6 3 0.0 # orig: 240.0
set param_card dim6 4 0.0 # orig: 12.0
set param_card dim6 5 0.0 # orig: 120.0
</weight>
<weight id='rwgt_107'>set param_card dim6 1 -5.0 # orig: 25.0
set param_card dim6 2 -160.0 # orig: 240.0
set param_card dim6 3 0.0 # orig: 240.0
set param_card dim6 4 0.0 # orig: 12.0
set param_card dim6 5 0.0 # orig: 120.0
</weight>
<weight id='rwgt_108'>set param_card dim6 1 -5.0 # orig: 25.0
set param_card dim6 3 80.0 # orig: 240.0
set param_card dim6 4 0.0 # orig: 12.0
set param_card dim6 5 0.0 # orig: 120.0
</weight>
<weight id='rwgt_109'>set param_card dim6 1 -5.0 # orig: 25.0
set param_card dim6 3 -80.0 # orig: 240.0
set param_card dim6 4 0.0 # orig: 12.0
set param_card dim6 5 0.0 # orig: 120.0
</weight>
<weight id='rwgt_110'>set param_card dim6 1 -5.0 # orig: 25.0
set param_card dim6 2 -240.0 # orig: 240.0
set param_card dim6 3 80.0 # orig: 240.0
set param_card dim6 4 0.0 # orig: 12.0
set param_card dim6 5 0.0 # orig: 120.0
</weight>
<weight id='rwgt_111'>set param_card dim6 1 -5.0 # orig: 25.0
set param_card dim6 2 -240.0 # orig: 240.0
set param_card dim6 3 -80.0 # orig: 240.0
set param_card dim6 4 0.0 # orig: 12.0
set param_card dim6 5 0.0 # orig: 120.0
</weight>
<weight id='rwgt_112'>set param_card dim6 1 -5.0 # orig: 25.0
set param_card dim6 3 160.0 # orig: 240.0
set param_card dim6 4 0.0 # orig: 12.0
set param_card dim6 5 0.0 # orig: 120.0
</weight>
<weight id='rwgt_113'>set param_card dim6 1 -5.0 # orig: 25.0
set param_card dim6 3 -160.0 # orig: 240.0
set param_card dim6 4 0.0 # orig: 12.0
set param_card dim6 5 0.0 # orig: 120.0
</weight>
<weight id='rwgt_114'>set param_card dim6 1 -5.0 # orig: 25.0
set param_card dim6 2 -240.0 # orig: 240.0
set param_card dim6 3 160.0 # orig: 240.0
set param_card dim6 4 0.0 # orig: 12.0
set param_card dim6 5 0.0 # orig: 120.0
</weight>
<weight id='rwgt_115'>set param_card dim6 1 -5.0 # orig: 25.0
set param_card dim6 2 -240.0 # orig: 240.0
set param_card dim6 3 -160.0 # orig: 240.0
set param_card dim6 4 0.0 # orig: 12.0
set param_card dim6 5 0.0 # orig: 120.0
</weight>
<weight id='rwgt_116'>set param_card dim6 1 -5.0 # orig: 25.0
set param_card dim6 4 0.0 # orig: 12.0
set param_card dim6 5 0.0 # orig: 120.0
</weight>
<weight id='rwgt_117'>set param_card dim6 1 -5.0 # orig: 25.0
set param_card dim6 3 -240.0 # orig: 240.0
set param_card dim6 4 0.0 # orig: 12.0
set param_card dim6 5 0.0 # orig: 120.0
</weight>
<weight id='rwgt_118'>set param_card dim6 1 -5.0 # orig: 25.0
set param_card dim6 2 -240.0 # orig: 240.0
set param_card dim6 4 0.0 # orig: 12.0
set param_card dim6 5 0.0 # orig: 120.0
</weight>
<weight id='rwgt_119'>set param_card dim6 1 -5.0 # orig: 25.0
set param_card dim6 2 -240.0 # orig: 240.0
set param_card dim6 3 -240.0 # orig: 240.0
set param_card dim6 4 0.0 # orig: 12.0
set param_card dim6 5 0.0 # orig: 120.0
</weight>
<weight id='rwgt_120'>set param_card dim6 1 -5.0 # orig: 25.0
set param_card dim6 3 0.0 # orig: 240.0
set param_card dim6 4 0.0 # orig: 12.0
set param_card dim6 5 0.0 # orig: 120.0
</weight>
<weight id='rwgt_121'>set param_card dim6 1 -5.0 # orig: 25.0
set param_card dim6 2 -240.0 # orig: 240.0
set param_card dim6 3 0.0 # orig: 240.0
set param_card dim6 4 0.0 # orig: 12.0
set param_card dim6 5 0.0 # orig: 120.0
</weight>
<weight id='rwgt_122'>set param_card dim6 1 -5.0 # orig: 25.0
set param_card dim6 2 0.0 # orig: 240.0
set param_card dim6 3 80.0 # orig: 240.0
set param_card dim6 4 0.0 # orig: 12.0
set param_card dim6 5 0.0 # orig: 120.0
</weight>
<weight id='rwgt_123'>set param_card dim6 1 -5.0 # orig: 25.0
set param_card dim6 2 0.0 # orig: 240.0
set param_card dim6 3 -80.0 # orig: 240.0
set param_card dim6 4 0.0 # orig: 12.0
set param_card dim6 5 0.0 # orig: 120.0
</weight>
<weight id='rwgt_124'>set param_card dim6 1 -5.0 # orig: 25.0
set param_card dim6 2 0.0 # orig: 240.0
set param_card dim6 3 160.0 # orig: 240.0
set param_card dim6 4 0.0 # orig: 12.0
set param_card dim6 5 0.0 # orig: 120.0
</weight>
<weight id='rwgt_125'>set param_card dim6 1 -5.0 # orig: 25.0
set param_card dim6 2 0.0 # orig: 240.0
set param_card dim6 3 -160.0 # orig: 240.0
set param_card dim6 4 0.0 # orig: 12.0
set param_card dim6 5 0.0 # orig: 120.0
</weight>
<weight id='rwgt_126'>set param_card dim6 1 -5.0 # orig: 25.0
set param_card dim6 2 0.0 # orig: 240.0
set param_card dim6 4 0.0 # orig: 12.0
set param_card dim6 5 0.0 # orig: 120.0
</weight>
<weight id='rwgt_127'>set param_card dim6 1 -5.0 # orig: 25.0
set param_card dim6 2 0.0 # orig: 240.0
set param_card dim6 3 -240.0 # orig: 240.0
set param_card dim6 4 0.0 # orig: 12.0
set param_card dim6 5 0.0 # orig: 120.0
</weight>
<weight id='rwgt_128'>set param_card dim6 1 -5.0 # orig: 25.0
set param_card dim6 2 0.0 # orig: 240.0
set param_card dim6 3 0.0 # orig: 240.0
set param_card dim6 4 0.0 # orig: 12.0
set param_card dim6 5 0.0 # orig: 120.0
</weight>
<weight id='rwgt_129'>set param_card dim6 1 15.0 # orig: 25.0
set param_card dim6 2 80.0 # orig: 240.0
set param_card dim6 3 80.0 # orig: 240.0
set param_card dim6 4 0.0 # orig: 12.0
set param_card dim6 5 0.0 # orig: 120.0
</weight>
<weight id='rwgt_130'>set param_card dim6 1 15.0 # orig: 25.0
set param_card dim6 2 80.0 # orig: 240.0
set param_card dim6 3 -80.0 # orig: 240.0
set param_card dim6 4 0.0 # orig: 12.0
set param_card dim6 5 0.0 # orig: 120.0
</weight>
<weight id='rwgt_131'>set param_card dim6 1 15.0 # orig: 25.0
set param_card dim6 2 -80.0 # orig: 240.0
set param_card dim6 3 80.0 # orig: 240.0
set param_card dim6 4 0.0 # orig: 12.0
set param_card dim6 5 0.0 # orig: 120.0
</weight>
<weight id='rwgt_132'>set param_card dim6 1 15.0 # orig: 25.0
set param_card dim6 2 -80.0 # orig: 240.0
set param_card dim6 3 -80.0 # orig: 240.0
set param_card dim6 4 0.0 # orig: 12.0
set param_card dim6 5 0.0 # orig: 120.0
</weight>
<weight id='rwgt_133'>set param_card dim6 1 15.0 # orig: 25.0
set param_card dim6 2 80.0 # orig: 240.0
set param_card dim6 3 160.0 # orig: 240.0
set param_card dim6 4 0.0 # orig: 12.0
set param_card dim6 5 0.0 # orig: 120.0
</weight>
<weight id='rwgt_134'>set param_card dim6 1 15.0 # orig: 25.0
set param_card dim6 2 80.0 # orig: 240.0
set param_card dim6 3 -160.0 # orig: 240.0
set param_card dim6 4 0.0 # orig: 12.0
set param_card dim6 5 0.0 # orig: 120.0
</weight>
<weight id='rwgt_135'>set param_card dim6 1 15.0 # orig: 25.0
set param_card dim6 2 -80.0 # orig: 240.0
set param_card dim6 3 160.0 # orig: 240.0
set param_card dim6 4 0.0 # orig: 12.0
set param_card dim6 5 0.0 # orig: 120.0
</weight>
<weight id='rwgt_136'>set param_card dim6 1 15.0 # orig: 25.0
set param_card dim6 2 -80.0 # orig: 240.0
set param_card dim6 3 -160.0 # orig: 240.0
set param_card dim6 4 0.0 # orig: 12.0
set param_card dim6 5 0.0 # orig: 120.0
</weight>
<weight id='rwgt_137'>set param_card dim6 1 15.0 # orig: 25.0
set param_card dim6 2 80.0 # orig: 240.0
set param_card dim6 4 0.0 # orig: 12.0
set param_card dim6 5 0.0 # orig: 120.0
</weight>
<weight id='rwgt_138'>set param_card dim6 1 15.0 # orig: 25.0
set param_card dim6 2 80.0 # orig: 240.0
set param_card dim6 3 -240.0 # orig: 240.0
set param_card dim6 4 0.0 # orig: 12.0
set param_card dim6 5 0.0 # orig: 120.0
</weight>
<weight id='rwgt_139'>set param_card dim6 1 15.0 # orig: 25.0
set param_card dim6 2 -80.0 # orig: 240.0
set param_card dim6 4 0.0 # orig: 12.0
set param_card dim6 5 0.0 # orig: 120.0
</weight>
<weight id='rwgt_140'>set param_card dim6 1 15.0 # orig: 25.0
set param_card dim6 2 -80.0 # orig: 240.0
set param_card dim6 3 -240.0 # orig: 240.0
set param_card dim6 4 0.0 # orig: 12.0
set param_card dim6 5 0.0 # orig: 120.0
</weight>
<weight id='rwgt_141'>set param_card dim6 1 15.0 # orig: 25.0
set param_card dim6 2 80.0 # orig: 240.0
set param_card dim6 3 0.0 # orig: 240.0
set param_card dim6 4 0.0 # orig: 12.0
set param_card dim6 5 0.0 # orig: 120.0
</weight>
<weight id='rwgt_142'>set param_card dim6 1 15.0 # orig: 25.0
set param_card dim6 2 -80.0 # orig: 240.0
set param_card dim6 3 0.0 # orig: 240.0
set param_card dim6 4 0.0 # orig: 12.0
set param_card dim6 5 0.0 # orig: 120.0
</weight>
<weight id='rwgt_143'>set param_card dim6 1 15.0 # orig: 25.0
set param_card dim6 2 160.0 # orig: 240.0
set param_card dim6 3 80.0 # orig: 240.0
set param_card dim6 4 0.0 # orig: 12.0
set param_card dim6 5 0.0 # orig: 120.0
</weight>
<weight id='rwgt_144'>set param_card dim6 1 15.0 # orig: 25.0
set param_card dim6 2 160.0 # orig: 240.0
set param_card dim6 3 -80.0 # orig: 240.0
set param_card dim6 4 0.0 # orig: 12.0
set param_card dim6 5 0.0 # orig: 120.0
</weight>
<weight id='rwgt_145'>set param_card dim6 1 15.0 # orig: 25.0
set param_card dim6 2 -160.0 # orig: 240.0
set param_card dim6 3 80.0 # orig: 240.0
set param_card dim6 4 0.0 # orig: 12.0
set param_card dim6 5 0.0 # orig: 120.0
</weight>
<weight id='rwgt_146'>set param_card dim6 1 15.0 # orig: 25.0
set param_card dim6 2 -160.0 # orig: 240.0
set param_card dim6 3 -80.0 # orig: 240.0
set param_card dim6 4 0.0 # orig: 12.0
set param_card dim6 5 0.0 # orig: 120.0
</weight>
<weight id='rwgt_147'>set param_card dim6 1 15.0 # orig: 25.0
set param_card dim6 2 160.0 # orig: 240.0
set param_card dim6 3 160.0 # orig: 240.0
set param_card dim6 4 0.0 # orig: 12.0
set param_card dim6 5 0.0 # orig: 120.0
</weight>
<weight id='rwgt_148'>set param_card dim6 1 15.0 # orig: 25.0
set param_card dim6 2 160.0 # orig: 240.0
set param_card dim6 3 -160.0 # orig: 240.0
set param_card dim6 4 0.0 # orig: 12.0
set param_card dim6 5 0.0 # orig: 120.0
</weight>
<weight id='rwgt_149'>set param_card dim6 1 15.0 # orig: 25.0
set param_card dim6 2 -160.0 # orig: 240.0
set param_card dim6 3 160.0 # orig: 240.0
set param_card dim6 4 0.0 # orig: 12.0
set param_card dim6 5 0.0 # orig: 120.0
</weight>
<weight id='rwgt_150'>set param_card dim6 1 15.0 # orig: 25.0
set param_card dim6 2 -160.0 # orig: 240.0
set param_card dim6 3 -160.0 # orig: 240.0
set param_card dim6 4 0.0 # orig: 12.0
set param_card dim6 5 0.0 # orig: 120.0
</weight>
<weight id='rwgt_151'>set param_card dim6 1 15.0 # orig: 25.0
set param_card dim6 2 160.0 # orig: 240.0
set param_card dim6 4 0.0 # orig: 12.0
set param_card dim6 5 0.0 # orig: 120.0
</weight>
<weight id='rwgt_152'>set param_card dim6 1 15.0 # orig: 25.0
set param_card dim6 2 160.0 # orig: 240.0
set param_card dim6 3 -240.0 # orig: 240.0
set param_card dim6 4 0.0 # orig: 12.0
set param_card dim6 5 0.0 # orig: 120.0
</weight>
<weight id='rwgt_153'>set param_card dim6 1 15.0 # orig: 25.0
set param_card dim6 2 -160.0 # orig: 240.0
set param_card dim6 4 0.0 # orig: 12.0
set param_card dim6 5 0.0 # orig: 120.0
</weight>
<weight id='rwgt_154'>set param_card dim6 1 15.0 # orig: 25.0
set param_card dim6 2 -160.0 # orig: 240.0
set param_card dim6 3 -240.0 # orig: 240.0
set param_card dim6 4 0.0 # orig: 12.0
set param_card dim6 5 0.0 # orig: 120.0
</weight>
<weight id='rwgt_155'>set param_card dim6 1 15.0 # orig: 25.0
set param_card dim6 2 160.0 # orig: 240.0
set param_card dim6 3 0.0 # orig: 240.0
set param_card dim6 4 0.0 # orig: 12.0
set param_card dim6 5 0.0 # orig: 120.0
</weight>
<weight id='rwgt_156'>set param_card dim6 1 15.0 # orig: 25.0
set param_card dim6 2 -160.0 # orig: 240.0
set param_card dim6 3 0.0 # orig: 240.0
set param_card dim6 4 0.0 # orig: 12.0
set param_card dim6 5 0.0 # orig: 120.0
</weight>
<weight id='rwgt_157'>set param_card dim6 1 15.0 # orig: 25.0
set param_card dim6 3 80.0 # orig: 240.0
set param_card dim6 4 0.0 # orig: 12.0
set param_card dim6 5 0.0 # orig: 120.0
</weight>
<weight id='rwgt_158'>set param_card dim6 1 15.0 # orig: 25.0
set param_card dim6 3 -80.0 # orig: 240.0
set param_card dim6 4 0.0 # orig: 12.0
set param_card dim6 5 0.0 # orig: 120.0
</weight>
<weight id='rwgt_159'>set param_card dim6 1 15.0 # orig: 25.0
set param_card dim6 2 -240.0 # orig: 240.0
set param_card dim6 3 80.0 # orig: 240.0
set param_card dim6 4 0.0 # orig: 12.0
set param_card dim6 5 0.0 # orig: 120.0
</weight>
<weight id='rwgt_160'>set param_card dim6 1 15.0 # orig: 25.0
set param_card dim6 2 -240.0 # orig: 240.0
set param_card dim6 3 -80.0 # orig: 240.0
set param_card dim6 4 0.0 # orig: 12.0
set param_card dim6 5 0.0 # orig: 120.0
</weight>
<weight id='rwgt_161'>set param_card dim6 1 15.0 # orig: 25.0
set param_card dim6 3 160.0 # orig: 240.0
set param_card dim6 4 0.0 # orig: 12.0
set param_card dim6 5 0.0 # orig: 120.0
</weight>
<weight id='rwgt_162'>set param_card dim6 1 15.0 # orig: 25.0
set param_card dim6 3 -160.0 # orig: 240.0
set param_card dim6 4 0.0 # orig: 12.0
set param_card dim6 5 0.0 # orig: 120.0
</weight>
<weight id='rwgt_163'>set param_card dim6 1 15.0 # orig: 25.0
set param_card dim6 2 -240.0 # orig: 240.0
set param_card dim6 3 160.0 # orig: 240.0
set param_card dim6 4 0.0 # orig: 12.0
set param_card dim6 5 0.0 # orig: 120.0
</weight>
<weight id='rwgt_164'>set param_card dim6 1 15.0 # orig: 25.0
set param_card dim6 2 -240.0 # orig: 240.0
set param_card dim6 3 -160.0 # orig: 240.0
set param_card dim6 4 0.0 # orig: 12.0
set param_card dim6 5 0.0 # orig: 120.0
</weight>
<weight id='rwgt_165'>set param_card dim6 1 15.0 # orig: 25.0
set param_card dim6 4 0.0 # orig: 12.0
set param_card dim6 5 0.0 # orig: 120.0
</weight>
<weight id='rwgt_166'>set param_card dim6 1 15.0 # orig: 25.0
set param_card dim6 3 -240.0 # orig: 240.0
set param_card dim6 4 0.0 # orig: 12.0
set param_card dim6 5 0.0 # orig: 120.0
</weight>
<weight id='rwgt_167'>set param_card dim6 1 15.0 # orig: 25.0
set param_card dim6 2 -240.0 # orig: 240.0
set param_card dim6 4 0.0 # orig: 12.0
set param_card dim6 5 0.0 # orig: 120.0
</weight>
<weight id='rwgt_168'>set param_card dim6 1 15.0 # orig: 25.0
set param_card dim6 2 -240.0 # orig: 240.0
set param_card dim6 3 -240.0 # orig: 240.0
set param_card dim6 4 0.0 # orig: 12.0
set param_card dim6 5 0.0 # orig: 120.0
</weight>
<weight id='rwgt_169'>set param_card dim6 1 15.0 # orig: 25.0
set param_card dim6 3 0.0 # orig: 240.0
set param_card dim6 4 0.0 # orig: 12.0
set param_card dim6 5 0.0 # orig: 120.0
</weight>
<weight id='rwgt_170'>set param_card dim6 1 15.0 # orig: 25.0
set param_card dim6 2 -240.0 # orig: 240.0
set param_card dim6 3 0.0 # orig: 240.0
set param_card dim6 4 0.0 # orig: 12.0
set param_card dim6 5 0.0 # orig: 120.0
</weight>
<weight id='rwgt_171'>set param_card dim6 1 15.0 # orig: 25.0
set param_card dim6 2 0.0 # orig: 240.0
set param_card dim6 3 80.0 # orig: 240.0
set param_card dim6 4 0.0 # orig: 12.0
set param_card dim6 5 0.0 # orig: 120.0
</weight>
<weight id='rwgt_172'>set param_card dim6 1 15.0 # orig: 25.0
set param_card dim6 2 0.0 # orig: 240.0
set param_card dim6 3 -80.0 # orig: 240.0
set param_card dim6 4 0.0 # orig: 12.0
set param_card dim6 5 0.0 # orig: 120.0
</weight>
<weight id='rwgt_173'>set param_card dim6 1 15.0 # orig: 25.0
set param_card dim6 2 0.0 # orig: 240.0
set param_card dim6 3 160.0 # orig: 240.0
set param_card dim6 4 0.0 # orig: 12.0
set param_card dim6 5 0.0 # orig: 120.0
</weight>
<weight id='rwgt_174'>set param_card dim6 1 15.0 # orig: 25.0
set param_card dim6 2 0.0 # orig: 240.0
set param_card dim6 3 -160.0 # orig: 240.0
set param_card dim6 4 0.0 # orig: 12.0
set param_card dim6 5 0.0 # orig: 120.0
</weight>
<weight id='rwgt_175'>set param_card dim6 1 15.0 # orig: 25.0
set param_card dim6 2 0.0 # orig: 240.0
set param_card dim6 4 0.0 # orig: 12.0
set param_card dim6 5 0.0 # orig: 120.0
</weight>
<weight id='rwgt_176'>set param_card dim6 1 15.0 # orig: 25.0
set param_card dim6 2 0.0 # orig: 240.0
set param_card dim6 3 -240.0 # orig: 240.0
set param_card dim6 4 0.0 # orig: 12.0
set param_card dim6 5 0.0 # orig: 120.0
</weight>
<weight id='rwgt_177'>set param_card dim6 1 15.0 # orig: 25.0
set param_card dim6 2 0.0 # orig: 240.0
set param_card dim6 3 0.0 # orig: 240.0
set param_card dim6 4 0.0 # orig: 12.0
set param_card dim6 5 0.0 # orig: 120.0
</weight>
<weight id='rwgt_178'>set param_card dim6 1 -15.0 # orig: 25.0
set param_card dim6 2 80.0 # orig: 240.0
set param_card dim6 3 80.0 # orig: 240.0
set param_card dim6 4 0.0 # orig: 12.0
set param_card dim6 5 0.0 # orig: 120.0
</weight>
<weight id='rwgt_179'>set param_card dim6 1 -15.0 # orig: 25.0
set param_card dim6 2 80.0 # orig: 240.0
set param_card dim6 3 -80.0 # orig: 240.0
set param_card dim6 4 0.0 # orig: 12.0
set param_card dim6 5 0.0 # orig: 120.0
</weight>
<weight id='rwgt_180'>set param_card dim6 1 -15.0 # orig: 25.0
set param_card dim6 2 -80.0 # orig: 240.0
set param_card dim6 3 80.0 # orig: 240.0
set param_card dim6 4 0.0 # orig: 12.0
set param_card dim6 5 0.0 # orig: 120.0
</weight>
<weight id='rwgt_181'>set param_card dim6 1 -15.0 # orig: 25.0
set param_card dim6 2 -80.0 # orig: 240.0
set param_card dim6 3 -80.0 # orig: 240.0
set param_card dim6 4 0.0 # orig: 12.0
set param_card dim6 5 0.0 # orig: 120.0
</weight>
<weight id='rwgt_182'>set param_card dim6 1 -15.0 # orig: 25.0
set param_card dim6 2 80.0 # orig: 240.0
set param_card dim6 3 160.0 # orig: 240.0
set param_card dim6 4 0.0 # orig: 12.0
set param_card dim6 5 0.0 # orig: 120.0
</weight>
<weight id='rwgt_183'>set param_card dim6 1 -15.0 # orig: 25.0
set param_card dim6 2 80.0 # orig: 240.0
set param_card dim6 3 -160.0 # orig: 240.0
set param_card dim6 4 0.0 # orig: 12.0
set param_card dim6 5 0.0 # orig: 120.0
</weight>
<weight id='rwgt_184'>set param_card dim6 1 -15.0 # orig: 25.0
set param_card dim6 2 -80.0 # orig: 240.0
set param_card dim6 3 160.0 # orig: 240.0
set param_card dim6 4 0.0 # orig: 12.0
set param_card dim6 5 0.0 # orig: 120.0
</weight>
<weight id='rwgt_185'>set param_card dim6 1 -15.0 # orig: 25.0
set param_card dim6 2 -80.0 # orig: 240.0
set param_card dim6 3 -160.0 # orig: 240.0
set param_card dim6 4 0.0 # orig: 12.0
set param_card dim6 5 0.0 # orig: 120.0
</weight>
<weight id='rwgt_186'>set param_card dim6 1 -15.0 # orig: 25.0
set param_card dim6 2 80.0 # orig: 240.0
set param_card dim6 4 0.0 # orig: 12.0
set param_card dim6 5 0.0 # orig: 120.0
</weight>
<weight id='rwgt_187'>set param_card dim6 1 -15.0 # orig: 25.0
set param_card dim6 2 80.0 # orig: 240.0
set param_card dim6 3 -240.0 # orig: 240.0
set param_card dim6 4 0.0 # orig: 12.0
set param_card dim6 5 0.0 # orig: 120.0
</weight>
<weight id='rwgt_188'>set param_card dim6 1 -15.0 # orig: 25.0
set param_card dim6 2 -80.0 # orig: 240.0
set param_card dim6 4 0.0 # orig: 12.0
set param_card dim6 5 0.0 # orig: 120.0
</weight>
<weight id='rwgt_189'>set param_card dim6 1 -15.0 # orig: 25.0
set param_card dim6 2 -80.0 # orig: 240.0
set param_card dim6 3 -240.0 # orig: 240.0
set param_card dim6 4 0.0 # orig: 12.0
set param_card dim6 5 0.0 # orig: 120.0
</weight>
<weight id='rwgt_190'>set param_card dim6 1 -15.0 # orig: 25.0
set param_card dim6 2 80.0 # orig: 240.0
set param_card dim6 3 0.0 # orig: 240.0
set param_card dim6 4 0.0 # orig: 12.0
set param_card dim6 5 0.0 # orig: 120.0
</weight>
<weight id='rwgt_191'>set param_card dim6 1 -15.0 # orig: 25.0
set param_card dim6 2 -80.0 # orig: 240.0
set param_card dim6 3 0.0 # orig: 240.0
set param_card dim6 4 0.0 # orig: 12.0
set param_card dim6 5 0.0 # orig: 120.0
</weight>
<weight id='rwgt_192'>set param_card dim6 1 -15.0 # orig: 25.0
set param_card dim6 2 160.0 # orig: 240.0
set param_card dim6 3 80.0 # orig: 240.0
set param_card dim6 4 0.0 # orig: 12.0
set param_card dim6 5 0.0 # orig: 120.0
</weight>
<weight id='rwgt_193'>set param_card dim6 1 -15.0 # orig: 25.0
set param_card dim6 2 160.0 # orig: 240.0
set param_card dim6 3 -80.0 # orig: 240.0
set param_card dim6 4 0.0 # orig: 12.0
set param_card dim6 5 0.0 # orig: 120.0
</weight>
<weight id='rwgt_194'>set param_card dim6 1 -15.0 # orig: 25.0
set param_card dim6 2 -160.0 # orig: 240.0
set param_card dim6 3 80.0 # orig: 240.0
set param_card dim6 4 0.0 # orig: 12.0
set param_card dim6 5 0.0 # orig: 120.0
</weight>
<weight id='rwgt_195'>set param_card dim6 1 -15.0 # orig: 25.0
set param_card dim6 2 -160.0 # orig: 240.0
set param_card dim6 3 -80.0 # orig: 240.0
set param_card dim6 4 0.0 # orig: 12.0
set param_card dim6 5 0.0 # orig: 120.0
</weight>
<weight id='rwgt_196'>set param_card dim6 1 -15.0 # orig: 25.0
set param_card dim6 2 160.0 # orig: 240.0
set param_card dim6 3 160.0 # orig: 240.0
set param_card dim6 4 0.0 # orig: 12.0
set param_card dim6 5 0.0 # orig: 120.0
</weight>
<weight id='rwgt_197'>set param_card dim6 1 -15.0 # orig: 25.0
set param_card dim6 2 160.0 # orig: 240.0
set param_card dim6 3 -160.0 # orig: 240.0
set param_card dim6 4 0.0 # orig: 12.0
set param_card dim6 5 0.0 # orig: 120.0
</weight>
<weight id='rwgt_198'>set param_card dim6 1 -15.0 # orig: 25.0
set param_card dim6 2 -160.0 # orig: 240.0
set param_card dim6 3 160.0 # orig: 240.0
set param_card dim6 4 0.0 # orig: 12.0
set param_card dim6 5 0.0 # orig: 120.0
</weight>
<weight id='rwgt_199'>set param_card dim6 1 -15.0 # orig: 25.0
set param_card dim6 2 -160.0 # orig: 240.0
set param_card dim6 3 -160.0 # orig: 240.0
set param_card dim6 4 0.0 # orig: 12.0
set param_card dim6 5 0.0 # orig: 120.0
</weight>
<weight id='rwgt_200'>set param_card dim6 1 -15.0 # orig: 25.0
set param_card dim6 2 160.0 # orig: 240.0
set param_card dim6 4 0.0 # orig: 12.0
set param_card dim6 5 0.0 # orig: 120.0
</weight>
<weight id='rwgt_201'>set param_card dim6 1 -15.0 # orig: 25.0
set param_card dim6 2 160.0 # orig: 240.0
set param_card dim6 3 -240.0 # orig: 240.0
set param_card dim6 4 0.0 # orig: 12.0
set param_card dim6 5 0.0 # orig: 120.0
</weight>
<weight id='rwgt_202'>set param_card dim6 1 -15.0 # orig: 25.0
set param_card dim6 2 -160.0 # orig: 240.0
set param_card dim6 4 0.0 # orig: 12.0
set param_card dim6 5 0.0 # orig: 120.0
</weight>
<weight id='rwgt_203'>set param_card dim6 1 -15.0 # orig: 25.0
set param_card dim6 2 -160.0 # orig: 240.0
set param_card dim6 3 -240.0 # orig: 240.0
set param_card dim6 4 0.0 # orig: 12.0
set param_card dim6 5 0.0 # orig: 120.0
</weight>
<weight id='rwgt_204'>set param_card dim6 1 -15.0 # orig: 25.0
set param_card dim6 2 160.0 # orig: 240.0
set param_card dim6 3 0.0 # orig: 240.0
set param_card dim6 4 0.0 # orig: 12.0
set param_card dim6 5 0.0 # orig: 120.0
</weight>
<weight id='rwgt_205'>set param_card dim6 1 -15.0 # orig: 25.0
set param_card dim6 2 -160.0 # orig: 240.0
set param_card dim6 3 0.0 # orig: 240.0
set param_card dim6 4 0.0 # orig: 12.0
set param_card dim6 5 0.0 # orig: 120.0
</weight>
<weight id='rwgt_206'>set param_card dim6 1 -15.0 # orig: 25.0
set param_card dim6 3 80.0 # orig: 240.0
set param_card dim6 4 0.0 # orig: 12.0
set param_card dim6 5 0.0 # orig: 120.0
</weight>
<weight id='rwgt_207'>set param_card dim6 1 -15.0 # orig: 25.0
set param_card dim6 3 -80.0 # orig: 240.0
set param_card dim6 4 0.0 # orig: 12.0
set param_card dim6 5 0.0 # orig: 120.0
</weight>
<weight id='rwgt_208'>set param_card dim6 1 -15.0 # orig: 25.0
set param_card dim6 2 -240.0 # orig: 240.0
set param_card dim6 3 80.0 # orig: 240.0
set param_card dim6 4 0.0 # orig: 12.0
set param_card dim6 5 0.0 # orig: 120.0
</weight>
<weight id='rwgt_209'>set param_card dim6 1 -15.0 # orig: 25.0
set param_card dim6 2 -240.0 # orig: 240.0
set param_card dim6 3 -80.0 # orig: 240.0
set param_card dim6 4 0.0 # orig: 12.0
set param_card dim6 5 0.0 # orig: 120.0
</weight>
<weight id='rwgt_210'>set param_card dim6 1 -15.0 # orig: 25.0
set param_card dim6 3 160.0 # orig: 240.0
set param_card dim6 4 0.0 # orig: 12.0
set param_card dim6 5 0.0 # orig: 120.0
</weight>
<weight id='rwgt_211'>set param_card dim6 1 -15.0 # orig: 25.0
set param_card dim6 3 -160.0 # orig: 240.0
set param_card dim6 4 0.0 # orig: 12.0
set param_card dim6 5 0.0 # orig: 120.0
</weight>
<weight id='rwgt_212'>set param_card dim6 1 -15.0 # orig: 25.0
set param_card dim6 2 -240.0 # orig: 240.0
set param_card dim6 3 160.0 # orig: 240.0
set param_card dim6 4 0.0 # orig: 12.0
set param_card dim6 5 0.0 # orig: 120.0
</weight>
<weight id='rwgt_213'>set param_card dim6 1 -15.0 # orig: 25.0
set param_card dim6 2 -240.0 # orig: 240.0
set param_card dim6 3 -160.0 # orig: 240.0
set param_card dim6 4 0.0 # orig: 12.0
set param_card dim6 5 0.0 # orig: 120.0
</weight>
<weight id='rwgt_214'>set param_card dim6 1 -15.0 # orig: 25.0
set param_card dim6 4 0.0 # orig: 12.0
set param_card dim6 5 0.0 # orig: 120.0
</weight>
<weight id='rwgt_215'>set param_card dim6 1 -15.0 # orig: 25.0
set param_card dim6 3 -240.0 # orig: 240.0
set param_card dim6 4 0.0 # orig: 12.0
set param_card dim6 5 0.0 # orig: 120.0
</weight>
<weight id='rwgt_216'>set param_card dim6 1 -15.0 # orig: 25.0
set param_card dim6 2 -240.0 # orig: 240.0
set param_card dim6 4 0.0 # orig: 12.0
set param_card dim6 5 0.0 # orig: 120.0
</weight>
<weight id='rwgt_217'>set param_card dim6 1 -15.0 # orig: 25.0
set param_card dim6 2 -240.0 # orig: 240.0
set param_card dim6 3 -240.0 # orig: 240.0
set param_card dim6 4 0.0 # orig: 12.0
set param_card dim6 5 0.0 # orig: 120.0
</weight>
<weight id='rwgt_218'>set param_card dim6 1 -15.0 # orig: 25.0
set param_card dim6 3 0.0 # orig: 240.0
set param_card dim6 4 0.0 # orig: 12.0
set param_card dim6 5 0.0 # orig: 120.0
</weight>
<weight id='rwgt_219'>set param_card dim6 1 -15.0 # orig: 25.0
set param_card dim6 2 -240.0 # orig: 240.0
set param_card dim6 3 0.0 # orig: 240.0
set param_card dim6 4 0.0 # orig: 12.0
set param_card dim6 5 0.0 # orig: 120.0
</weight>
<weight id='rwgt_220'>set param_card dim6 1 -15.0 # orig: 25.0
set param_card dim6 2 0.0 # orig: 240.0
set param_card dim6 3 80.0 # orig: 240.0
set param_card dim6 4 0.0 # orig: 12.0
set param_card dim6 5 0.0 # orig: 120.0
</weight>
<weight id='rwgt_221'>set param_card dim6 1 -15.0 # orig: 25.0
set param_card dim6 2 0.0 # orig: 240.0
set param_card dim6 3 -80.0 # orig: 240.0
set param_card dim6 4 0.0 # orig: 12.0
set param_card dim6 5 0.0 # orig: 120.0
</weight>
<weight id='rwgt_222'>set param_card dim6 1 -15.0 # orig: 25.0
set param_card dim6 2 0.0 # orig: 240.0
set param_card dim6 3 160.0 # orig: 240.0
set param_card dim6 4 0.0 # orig: 12.0
set param_card dim6 5 0.0 # orig: 120.0
</weight>
<weight id='rwgt_223'>set param_card dim6 1 -15.0 # orig: 25.0
set param_card dim6 2 0.0 # orig: 240.0
set param_card dim6 3 -160.0 # orig: 240.0
set param_card dim6 4 0.0 # orig: 12.0
set param_card dim6 5 0.0 # orig: 120.0
</weight>
<weight id='rwgt_224'>set param_card dim6 1 -15.0 # orig: 25.0
set param_card dim6 2 0.0 # orig: 240.0
set param_card dim6 4 0.0 # orig: 12.0
set param_card dim6 5 0.0 # orig: 120.0
</weight>
<weight id='rwgt_225'>set param_card dim6 1 -15.0 # orig: 25.0
set param_card dim6 2 0.0 # orig: 240.0
set param_card dim6 3 -240.0 # orig: 240.0
set param_card dim6 4 0.0 # orig: 12.0
set param_card dim6 5 0.0 # orig: 120.0
</weight>
<weight id='rwgt_226'>set param_card dim6 1 -15.0 # orig: 25.0
set param_card dim6 2 0.0 # orig: 240.0
set param_card dim6 3 0.0 # orig: 240.0
set param_card dim6 4 0.0 # orig: 12.0
set param_card dim6 5 0.0 # orig: 120.0
</weight>
<weight id='rwgt_227'>set param_card dim6 2 80.0 # orig: 240.0
set param_card dim6 3 80.0 # orig: 240.0
set param_card dim6 4 0.0 # orig: 12.0
set param_card dim6 5 0.0 # orig: 120.0
</weight>
<weight id='rwgt_228'>set param_card dim6 2 80.0 # orig: 240.0
set param_card dim6 3 -80.0 # orig: 240.0
set param_card dim6 4 0.0 # orig: 12.0
set param_card dim6 5 0.0 # orig: 120.0
</weight>
<weight id='rwgt_229'>set param_card dim6 2 -80.0 # orig: 240.0
set param_card dim6 3 80.0 # orig: 240.0
set param_card dim6 4 0.0 # orig: 12.0
set param_card dim6 5 0.0 # orig: 120.0
</weight>
<weight id='rwgt_230'>set param_card dim6 2 -80.0 # orig: 240.0
set param_card dim6 3 -80.0 # orig: 240.0
set param_card dim6 4 0.0 # orig: 12.0
set param_card dim6 5 0.0 # orig: 120.0
</weight>
<weight id='rwgt_231'>set param_card dim6 2 80.0 # orig: 240.0
set param_card dim6 3 160.0 # orig: 240.0
set param_card dim6 4 0.0 # orig: 12.0
set param_card dim6 5 0.0 # orig: 120.0
</weight>
<weight id='rwgt_232'>set param_card dim6 2 80.0 # orig: 240.0
set param_card dim6 3 -160.0 # orig: 240.0
set param_card dim6 4 0.0 # orig: 12.0
set param_card dim6 5 0.0 # orig: 120.0
</weight>
<weight id='rwgt_233'>set param_card dim6 2 -80.0 # orig: 240.0
set param_card dim6 3 160.0 # orig: 240.0
set param_card dim6 4 0.0 # orig: 12.0
set param_card dim6 5 0.0 # orig: 120.0
</weight>
<weight id='rwgt_234'>set param_card dim6 2 -80.0 # orig: 240.0
set param_card dim6 3 -160.0 # orig: 240.0
set param_card dim6 4 0.0 # orig: 12.0
set param_card dim6 5 0.0 # orig: 120.0
</weight>
<weight id='rwgt_235'>set param_card dim6 2 80.0 # orig: 240.0
set param_card dim6 4 0.0 # orig: 12.0
set param_card dim6 5 0.0 # orig: 120.0
</weight>
<weight id='rwgt_236'>set param_card dim6 2 80.0 # orig: 240.0
set param_card dim6 3 -240.0 # orig: 240.0
set param_card dim6 4 0.0 # orig: 12.0
set param_card dim6 5 0.0 # orig: 120.0
</weight>
<weight id='rwgt_237'>set param_card dim6 2 -80.0 # orig: 240.0
set param_card dim6 4 0.0 # orig: 12.0
set param_card dim6 5 0.0 # orig: 120.0
</weight>
<weight id='rwgt_238'>set param_card dim6 2 -80.0 # orig: 240.0
set param_card dim6 3 -240.0 # orig: 240.0
set param_card dim6 4 0.0 # orig: 12.0
set param_card dim6 5 0.0 # orig: 120.0
</weight>
<weight id='rwgt_239'>set param_card dim6 2 80.0 # orig: 240.0
set param_card dim6 3 0.0 # orig: 240.0
set param_card dim6 4 0.0 # orig: 12.0
set param_card dim6 5 0.0 # orig: 120.0
</weight>
<weight id='rwgt_240'>set param_card dim6 2 -80.0 # orig: 240.0
set param_card dim6 3 0.0 # orig: 240.0
set param_card dim6 4 0.0 # orig: 12.0
set param_card dim6 5 0.0 # orig: 120.0
</weight>
<weight id='rwgt_241'>set param_card dim6 2 160.0 # orig: 240.0
set param_card dim6 3 80.0 # orig: 240.0
set param_card dim6 4 0.0 # orig: 12.0
set param_card dim6 5 0.0 # orig: 120.0
</weight>
<weight id='rwgt_242'>set param_card dim6 2 160.0 # orig: 240.0
set param_card dim6 3 -80.0 # orig: 240.0
set param_card dim6 4 0.0 # orig: 12.0
set param_card dim6 5 0.0 # orig: 120.0
</weight>
<weight id='rwgt_243'>set param_card dim6 2 -160.0 # orig: 240.0
set param_card dim6 3 80.0 # orig: 240.0
set param_card dim6 4 0.0 # orig: 12.0
set param_card dim6 5 0.0 # orig: 120.0
</weight>
<weight id='rwgt_244'>set param_card dim6 2 -160.0 # orig: 240.0
set param_card dim6 3 -80.0 # orig: 240.0
set param_card dim6 4 0.0 # orig: 12.0
set param_card dim6 5 0.0 # orig: 120.0
</weight>
<weight id='rwgt_245'>set param_card dim6 2 160.0 # orig: 240.0
set param_card dim6 3 160.0 # orig: 240.0
set param_card dim6 4 0.0 # orig: 12.0
set param_card dim6 5 0.0 # orig: 120.0
</weight>
<weight id='rwgt_246'>set param_card dim6 2 160.0 # orig: 240.0
set param_card dim6 3 -160.0 # orig: 240.0
set param_card dim6 4 0.0 # orig: 12.0
set param_card dim6 5 0.0 # orig: 120.0
</weight>
<weight id='rwgt_247'>set param_card dim6 2 -160.0 # orig: 240.0
set param_card dim6 3 160.0 # orig: 240.0
set param_card dim6 4 0.0 # orig: 12.0
set param_card dim6 5 0.0 # orig: 120.0
</weight>
<weight id='rwgt_248'>set param_card dim6 2 -160.0 # orig: 240.0
set param_card dim6 3 -160.0 # orig: 240.0
set param_card dim6 4 0.0 # orig: 12.0
set param_card dim6 5 0.0 # orig: 120.0
</weight>
<weight id='rwgt_249'>set param_card dim6 2 160.0 # orig: 240.0
set param_card dim6 4 0.0 # orig: 12.0
set param_card dim6 5 0.0 # orig: 120.0
</weight>
<weight id='rwgt_250'>set param_card dim6 2 160.0 # orig: 240.0
set param_card dim6 3 -240.0 # orig: 240.0
set param_card dim6 4 0.0 # orig: 12.0
set param_card dim6 5 0.0 # orig: 120.0
</weight>
<weight id='rwgt_251'>set param_card dim6 2 -160.0 # orig: 240.0
set param_card dim6 4 0.0 # orig: 12.0
set param_card dim6 5 0.0 # orig: 120.0
</weight>
<weight id='rwgt_252'>set param_card dim6 2 -160.0 # orig: 240.0
set param_card dim6 3 -240.0 # orig: 240.0
set param_card dim6 4 0.0 # orig: 12.0
set param_card dim6 5 0.0 # orig: 120.0
</weight>
<weight id='rwgt_253'>set param_card dim6 2 160.0 # orig: 240.0
set param_card dim6 3 0.0 # orig: 240.0
set param_card dim6 4 0.0 # orig: 12.0
set param_card dim6 5 0.0 # orig: 120.0
</weight>
<weight id='rwgt_254'>set param_card dim6 2 -160.0 # orig: 240.0
set param_card dim6 3 0.0 # orig: 240.0
set param_card dim6 4 0.0 # orig: 12.0
set param_card dim6 5 0.0 # orig: 120.0
</weight>
<weight id='rwgt_255'>set param_card dim6 3 80.0 # orig: 240.0
set param_card dim6 4 0.0 # orig: 12.0
set param_card dim6 5 0.0 # orig: 120.0
</weight>
<weight id='rwgt_256'>set param_card dim6 3 -80.0 # orig: 240.0
set param_card dim6 4 0.0 # orig: 12.0
set param_card dim6 5 0.0 # orig: 120.0
</weight>
<weight id='rwgt_257'>set param_card dim6 2 -240.0 # orig: 240.0
set param_card dim6 3 80.0 # orig: 240.0
set param_card dim6 4 0.0 # orig: 12.0
set param_card dim6 5 0.0 # orig: 120.0
</weight>
<weight id='rwgt_258'>set param_card dim6 2 -240.0 # orig: 240.0
set param_card dim6 3 -80.0 # orig: 240.0
set param_card dim6 4 0.0 # orig: 12.0
set param_card dim6 5 0.0 # orig: 120.0
</weight>
<weight id='rwgt_259'>set param_card dim6 3 160.0 # orig: 240.0
set param_card dim6 4 0.0 # orig: 12.0
set param_card dim6 5 0.0 # orig: 120.0
</weight>
<weight id='rwgt_260'>set param_card dim6 3 -160.0 # orig: 240.0
set param_card dim6 4 0.0 # orig: 12.0
set param_card dim6 5 0.0 # orig: 120.0
</weight>
<weight id='rwgt_261'>set param_card dim6 2 -240.0 # orig: 240.0
set param_card dim6 3 160.0 # orig: 240.0
set param_card dim6 4 0.0 # orig: 12.0
set param_card dim6 5 0.0 # orig: 120.0
</weight>
<weight id='rwgt_262'>set param_card dim6 2 -240.0 # orig: 240.0
set param_card dim6 3 -160.0 # orig: 240.0
set param_card dim6 4 0.0 # orig: 12.0
set param_card dim6 5 0.0 # orig: 120.0
</weight>
<weight id='rwgt_263'>set param_card dim6 4 0.0 # orig: 12.0
set param_card dim6 5 0.0 # orig: 120.0
</weight>
<weight id='rwgt_264'>set param_card dim6 3 -240.0 # orig: 240.0
set param_card dim6 4 0.0 # orig: 12.0
set param_card dim6 5 0.0 # orig: 120.0
</weight>
<weight id='rwgt_265'>set param_card dim6 2 -240.0 # orig: 240.0
set param_card dim6 4 0.0 # orig: 12.0
set param_card dim6 5 0.0 # orig: 120.0
</weight>
<weight id='rwgt_266'>set param_card dim6 2 -240.0 # orig: 240.0
set param_card dim6 3 -240.0 # orig: 240.0
set param_card dim6 4 0.0 # orig: 12.0
set param_card dim6 5 0.0 # orig: 120.0
</weight>
<weight id='rwgt_267'>set param_card dim6 3 0.0 # orig: 240.0
set param_card dim6 4 0.0 # orig: 12.0
set param_card dim6 5 0.0 # orig: 120.0
</weight>
<weight id='rwgt_268'>set param_card dim6 2 -240.0 # orig: 240.0
set param_card dim6 3 0.0 # orig: 240.0
set param_card dim6 4 0.0 # orig: 12.0
set param_card dim6 5 0.0 # orig: 120.0
</weight>
<weight id='rwgt_269'>set param_card dim6 2 0.0 # orig: 240.0
set param_card dim6 3 80.0 # orig: 240.0
set param_card dim6 4 0.0 # orig: 12.0
set param_card dim6 5 0.0 # orig: 120.0
</weight>
<weight id='rwgt_270'>set param_card dim6 2 0.0 # orig: 240.0
set param_card dim6 3 -80.0 # orig: 240.0
set param_card dim6 4 0.0 # orig: 12.0
set param_card dim6 5 0.0 # orig: 120.0
</weight>
<weight id='rwgt_271'>set param_card dim6 2 0.0 # orig: 240.0
set param_card dim6 3 160.0 # orig: 240.0
set param_card dim6 4 0.0 # orig: 12.0
set param_card dim6 5 0.0 # orig: 120.0
</weight>
<weight id='rwgt_272'>set param_card dim6 2 0.0 # orig: 240.0
set param_card dim6 3 -160.0 # orig: 240.0
set param_card dim6 4 0.0 # orig: 12.0
set param_card dim6 5 0.0 # orig: 120.0
</weight>
<weight id='rwgt_273'>set param_card dim6 2 0.0 # orig: 240.0
set param_card dim6 4 0.0 # orig: 12.0
set param_card dim6 5 0.0 # orig: 120.0
</weight>
<weight id='rwgt_274'>set param_card dim6 2 0.0 # orig: 240.0
set param_card dim6 3 -240.0 # orig: 240.0
set param_card dim6 4 0.0 # orig: 12.0
set param_card dim6 5 0.0 # orig: 120.0
</weight>
<weight id='rwgt_275'>set param_card dim6 2 0.0 # orig: 240.0
set param_card dim6 3 0.0 # orig: 240.0
set param_card dim6 4 0.0 # orig: 12.0
set param_card dim6 5 0.0 # orig: 120.0
</weight>
<weight id='rwgt_276'>set param_card dim6 1 -25.0 # orig: 25.0
set param_card dim6 2 80.0 # orig: 240.0
set param_card dim6 3 80.0 # orig: 240.0
set param_card dim6 4 0.0 # orig: 12.0
set param_card dim6 5 0.0 # orig: 120.0
</weight>
<weight id='rwgt_277'>set param_card dim6 1 -25.0 # orig: 25.0
set param_card dim6 2 80.0 # orig: 240.0
set param_card dim6 3 -80.0 # orig: 240.0
set param_card dim6 4 0.0 # orig: 12.0
set param_card dim6 5 0.0 # orig: 120.0
</weight>
<weight id='rwgt_278'>set param_card dim6 1 -25.0 # orig: 25.0
set param_card dim6 2 -80.0 # orig: 240.0
set param_card dim6 3 80.0 # orig: 240.0
set param_card dim6 4 0.0 # orig: 12.0
set param_card dim6 5 0.0 # orig: 120.0
</weight>
<weight id='rwgt_279'>set param_card dim6 1 -25.0 # orig: 25.0
set param_card dim6 2 -80.0 # orig: 240.0
set param_card dim6 3 -80.0 # orig: 240.0
set param_card dim6 4 0.0 # orig: 12.0
set param_card dim6 5 0.0 # orig: 120.0
</weight>
<weight id='rwgt_280'>set param_card dim6 1 -25.0 # orig: 25.0
set param_card dim6 2 80.0 # orig: 240.0
set param_card dim6 3 160.0 # orig: 240.0
set param_card dim6 4 0.0 # orig: 12.0
set param_card dim6 5 0.0 # orig: 120.0
</weight>
<weight id='rwgt_281'>set param_card dim6 1 -25.0 # orig: 25.0
set param_card dim6 2 80.0 # orig: 240.0
set param_card dim6 3 -160.0 # orig: 240.0
set param_card dim6 4 0.0 # orig: 12.0
set param_card dim6 5 0.0 # orig: 120.0
</weight>
<weight id='rwgt_282'>set param_card dim6 1 -25.0 # orig: 25.0
set param_card dim6 2 -80.0 # orig: 240.0
set param_card dim6 3 160.0 # orig: 240.0
set param_card dim6 4 0.0 # orig: 12.0
set param_card dim6 5 0.0 # orig: 120.0
</weight>
<weight id='rwgt_283'>set param_card dim6 1 -25.0 # orig: 25.0
set param_card dim6 2 -80.0 # orig: 240.0
set param_card dim6 3 -160.0 # orig: 240.0
set param_card dim6 4 0.0 # orig: 12.0
set param_card dim6 5 0.0 # orig: 120.0
</weight>
<weight id='rwgt_284'>set param_card dim6 1 -25.0 # orig: 25.0
set param_card dim6 2 80.0 # orig: 240.0
set param_card dim6 4 0.0 # orig: 12.0
set param_card dim6 5 0.0 # orig: 120.0
</weight>
<weight id='rwgt_285'>set param_card dim6 1 -25.0 # orig: 25.0
set param_card dim6 2 80.0 # orig: 240.0
set param_card dim6 3 -240.0 # orig: 240.0
set param_card dim6 4 0.0 # orig: 12.0
set param_card dim6 5 0.0 # orig: 120.0
</weight>
<weight id='rwgt_286'>set param_card dim6 1 -25.0 # orig: 25.0
set param_card dim6 2 -80.0 # orig: 240.0
set param_card dim6 4 0.0 # orig: 12.0
set param_card dim6 5 0.0 # orig: 120.0
</weight>
<weight id='rwgt_287'>set param_card dim6 1 -25.0 # orig: 25.0
set param_card dim6 2 -80.0 # orig: 240.0
set param_card dim6 3 -240.0 # orig: 240.0
set param_card dim6 4 0.0 # orig: 12.0
set param_card dim6 5 0.0 # orig: 120.0
</weight>
<weight id='rwgt_288'>set param_card dim6 1 -25.0 # orig: 25.0
set param_card dim6 2 80.0 # orig: 240.0
set param_card dim6 3 0.0 # orig: 240.0
set param_card dim6 4 0.0 # orig: 12.0
set param_card dim6 5 0.0 # orig: 120.0
</weight>
<weight id='rwgt_289'>set param_card dim6 1 -25.0 # orig: 25.0
set param_card dim6 2 -80.0 # orig: 240.0
set param_card dim6 3 0.0 # orig: 240.0
set param_card dim6 4 0.0 # orig: 12.0
set param_card dim6 5 0.0 # orig: 120.0
</weight>
<weight id='rwgt_290'>set param_card dim6 1 -25.0 # orig: 25.0
set param_card dim6 2 160.0 # orig: 240.0
set param_card dim6 3 80.0 # orig: 240.0
set param_card dim6 4 0.0 # orig: 12.0
set param_card dim6 5 0.0 # orig: 120.0
</weight>
<weight id='rwgt_291'>set param_card dim6 1 -25.0 # orig: 25.0
set param_card dim6 2 160.0 # orig: 240.0
set param_card dim6 3 -80.0 # orig: 240.0
set param_card dim6 4 0.0 # orig: 12.0
set param_card dim6 5 0.0 # orig: 120.0
</weight>
<weight id='rwgt_292'>set param_card dim6 1 -25.0 # orig: 25.0
set param_card dim6 2 -160.0 # orig: 240.0
set param_card dim6 3 80.0 # orig: 240.0
set param_card dim6 4 0.0 # orig: 12.0
set param_card dim6 5 0.0 # orig: 120.0
</weight>
<weight id='rwgt_293'>set param_card dim6 1 -25.0 # orig: 25.0
set param_card dim6 2 -160.0 # orig: 240.0
set param_card dim6 3 -80.0 # orig: 240.0
set param_card dim6 4 0.0 # orig: 12.0
set param_card dim6 5 0.0 # orig: 120.0
</weight>
<weight id='rwgt_294'>set param_card dim6 1 -25.0 # orig: 25.0
set param_card dim6 2 160.0 # orig: 240.0
set param_card dim6 3 160.0 # orig: 240.0
set param_card dim6 4 0.0 # orig: 12.0
set param_card dim6 5 0.0 # orig: 120.0
</weight>
<weight id='rwgt_295'>set param_card dim6 1 -25.0 # orig: 25.0
set param_card dim6 2 160.0 # orig: 240.0
set param_card dim6 3 -160.0 # orig: 240.0
set param_card dim6 4 0.0 # orig: 12.0
set param_card dim6 5 0.0 # orig: 120.0
</weight>
<weight id='rwgt_296'>set param_card dim6 1 -25.0 # orig: 25.0
set param_card dim6 2 -160.0 # orig: 240.0
set param_card dim6 3 160.0 # orig: 240.0
set param_card dim6 4 0.0 # orig: 12.0
set param_card dim6 5 0.0 # orig: 120.0
</weight>
<weight id='rwgt_297'>set param_card dim6 1 -25.0 # orig: 25.0
set param_card dim6 2 -160.0 # orig: 240.0
set param_card dim6 3 -160.0 # orig: 240.0
set param_card dim6 4 0.0 # orig: 12.0
set param_card dim6 5 0.0 # orig: 120.0
</weight>
<weight id='rwgt_298'>set param_card dim6 1 -25.0 # orig: 25.0
set param_card dim6 2 160.0 # orig: 240.0
set param_card dim6 4 0.0 # orig: 12.0
set param_card dim6 5 0.0 # orig: 120.0
</weight>
<weight id='rwgt_299'>set param_card dim6 1 -25.0 # orig: 25.0
set param_card dim6 2 160.0 # orig: 240.0
set param_card dim6 3 -240.0 # orig: 240.0
set param_card dim6 4 0.0 # orig: 12.0
set param_card dim6 5 0.0 # orig: 120.0
</weight>
<weight id='rwgt_300'>set param_card dim6 1 -25.0 # orig: 25.0
set param_card dim6 2 -160.0 # orig: 240.0
set param_card dim6 4 0.0 # orig: 12.0
set param_card dim6 5 0.0 # orig: 120.0
</weight>
<weight id='rwgt_301'>set param_card dim6 1 -25.0 # orig: 25.0
set param_card dim6 2 -160.0 # orig: 240.0
set param_card dim6 3 -240.0 # orig: 240.0
set param_card dim6 4 0.0 # orig: 12.0
set param_card dim6 5 0.0 # orig: 120.0
</weight>
<weight id='rwgt_302'>set param_card dim6 1 -25.0 # orig: 25.0
set param_card dim6 2 160.0 # orig: 240.0
set param_card dim6 3 0.0 # orig: 240.0
set param_card dim6 4 0.0 # orig: 12.0
set param_card dim6 5 0.0 # orig: 120.0
</weight>
<weight id='rwgt_303'>set param_card dim6 1 -25.0 # orig: 25.0
set param_card dim6 2 -160.0 # orig: 240.0
set param_card dim6 3 0.0 # orig: 240.0
set param_card dim6 4 0.0 # orig: 12.0
set param_card dim6 5 0.0 # orig: 120.0
</weight>
<weight id='rwgt_304'>set param_card dim6 1 -25.0 # orig: 25.0
set param_card dim6 3 80.0 # orig: 240.0
set param_card dim6 4 0.0 # orig: 12.0
set param_card dim6 5 0.0 # orig: 120.0
</weight>
<weight id='rwgt_305'>set param_card dim6 1 -25.0 # orig: 25.0
set param_card dim6 3 -80.0 # orig: 240.0
set param_card dim6 4 0.0 # orig: 12.0
set param_card dim6 5 0.0 # orig: 120.0
</weight>
<weight id='rwgt_306'>set param_card dim6 1 -25.0 # orig: 25.0
set param_card dim6 2 -240.0 # orig: 240.0
set param_card dim6 3 80.0 # orig: 240.0
set param_card dim6 4 0.0 # orig: 12.0
set param_card dim6 5 0.0 # orig: 120.0
</weight>
<weight id='rwgt_307'>set param_card dim6 1 -25.0 # orig: 25.0
set param_card dim6 2 -240.0 # orig: 240.0
set param_card dim6 3 -80.0 # orig: 240.0
set param_card dim6 4 0.0 # orig: 12.0
set param_card dim6 5 0.0 # orig: 120.0
</weight>
<weight id='rwgt_308'>set param_card dim6 1 -25.0 # orig: 25.0
set param_card dim6 3 160.0 # orig: 240.0
set param_card dim6 4 0.0 # orig: 12.0
set param_card dim6 5 0.0 # orig: 120.0
</weight>
<weight id='rwgt_309'>set param_card dim6 1 -25.0 # orig: 25.0
set param_card dim6 3 -160.0 # orig: 240.0
set param_card dim6 4 0.0 # orig: 12.0
set param_card dim6 5 0.0 # orig: 120.0
</weight>
<weight id='rwgt_310'>set param_card dim6 1 -25.0 # orig: 25.0
set param_card dim6 2 -240.0 # orig: 240.0
set param_card dim6 3 160.0 # orig: 240.0
set param_card dim6 4 0.0 # orig: 12.0
set param_card dim6 5 0.0 # orig: 120.0
</weight>
<weight id='rwgt_311'>set param_card dim6 1 -25.0 # orig: 25.0
set param_card dim6 2 -240.0 # orig: 240.0
set param_card dim6 3 -160.0 # orig: 240.0
set param_card dim6 4 0.0 # orig: 12.0
set param_card dim6 5 0.0 # orig: 120.0
</weight>
<weight id='rwgt_312'>set param_card dim6 1 -25.0 # orig: 25.0
set param_card dim6 4 0.0 # orig: 12.0
set param_card dim6 5 0.0 # orig: 120.0
</weight>
<weight id='rwgt_313'>set param_card dim6 1 -25.0 # orig: 25.0
set param_card dim6 3 -240.0 # orig: 240.0
set param_card dim6 4 0.0 # orig: 12.0
set param_card dim6 5 0.0 # orig: 120.0
</weight>
<weight id='rwgt_314'>set param_card dim6 1 -25.0 # orig: 25.0
set param_card dim6 2 -240.0 # orig: 240.0
set param_card dim6 4 0.0 # orig: 12.0
set param_card dim6 5 0.0 # orig: 120.0
</weight>
<weight id='rwgt_315'>set param_card dim6 1 -25.0 # orig: 25.0
set param_card dim6 2 -240.0 # orig: 240.0
set param_card dim6 3 -240.0 # orig: 240.0
set param_card dim6 4 0.0 # orig: 12.0
set param_card dim6 5 0.0 # orig: 120.0
</weight>
<weight id='rwgt_316'>set param_card dim6 1 -25.0 # orig: 25.0
set param_card dim6 3 0.0 # orig: 240.0
set param_card dim6 4 0.0 # orig: 12.0
set param_card dim6 5 0.0 # orig: 120.0
</weight>
<weight id='rwgt_317'>set param_card dim6 1 -25.0 # orig: 25.0
set param_card dim6 2 -240.0 # orig: 240.0
set param_card dim6 3 0.0 # orig: 240.0
set param_card dim6 4 0.0 # orig: 12.0
set param_card dim6 5 0.0 # orig: 120.0
</weight>
<weight id='rwgt_318'>set param_card dim6 1 -25.0 # orig: 25.0
set param_card dim6 2 0.0 # orig: 240.0
set param_card dim6 3 80.0 # orig: 240.0
set param_card dim6 4 0.0 # orig: 12.0
set param_card dim6 5 0.0 # orig: 120.0
</weight>
<weight id='rwgt_319'>set param_card dim6 1 -25.0 # orig: 25.0
set param_card dim6 2 0.0 # orig: 240.0
set param_card dim6 3 -80.0 # orig: 240.0
set param_card dim6 4 0.0 # orig: 12.0
set param_card dim6 5 0.0 # orig: 120.0
</weight>
<weight id='rwgt_320'>set param_card dim6 1 -25.0 # orig: 25.0
set param_card dim6 2 0.0 # orig: 240.0
set param_card dim6 3 160.0 # orig: 240.0
set param_card dim6 4 0.0 # orig: 12.0
set param_card dim6 5 0.0 # orig: 120.0
</weight>
<weight id='rwgt_321'>set param_card dim6 1 -25.0 # orig: 25.0
set param_card dim6 2 0.0 # orig: 240.0
set param_card dim6 3 -160.0 # orig: 240.0
set param_card dim6 4 0.0 # orig: 12.0
set param_card dim6 5 0.0 # orig: 120.0
</weight>
<weight id='rwgt_322'>set param_card dim6 1 -25.0 # orig: 25.0
set param_card dim6 2 0.0 # orig: 240.0
set param_card dim6 4 0.0 # orig: 12.0
set param_card dim6 5 0.0 # orig: 120.0
</weight>
<weight id='rwgt_323'>set param_card dim6 1 -25.0 # orig: 25.0
set param_card dim6 2 0.0 # orig: 240.0
set param_card dim6 3 -240.0 # orig: 240.0
set param_card dim6 4 0.0 # orig: 12.0
set param_card dim6 5 0.0 # orig: 120.0
</weight>
<weight id='rwgt_324'>set param_card dim6 1 -25.0 # orig: 25.0
set param_card dim6 2 0.0 # orig: 240.0
set param_card dim6 3 0.0 # orig: 240.0
set param_card dim6 4 0.0 # orig: 12.0
set param_card dim6 5 0.0 # orig: 120.0
</weight>
<weight id='rwgt_325'>set param_card dim6 1 0.0 # orig: 25.0
set param_card dim6 2 80.0 # orig: 240.0
set param_card dim6 3 80.0 # orig: 240.0
set param_card dim6 4 0.0 # orig: 12.0
set param_card dim6 5 0.0 # orig: 120.0
</weight>
<weight id='rwgt_326'>set param_card dim6 1 0.0 # orig: 25.0
set param_card dim6 2 80.0 # orig: 240.0
set param_card dim6 3 -80.0 # orig: 240.0
set param_card dim6 4 0.0 # orig: 12.0
set param_card dim6 5 0.0 # orig: 120.0
</weight>
<weight id='rwgt_327'>set param_card dim6 1 0.0 # orig: 25.0
set param_card dim6 2 -80.0 # orig: 240.0
set param_card dim6 3 80.0 # orig: 240.0
set param_card dim6 4 0.0 # orig: 12.0
set param_card dim6 5 0.0 # orig: 120.0
</weight>
<weight id='rwgt_328'>set param_card dim6 1 0.0 # orig: 25.0
set param_card dim6 2 -80.0 # orig: 240.0
set param_card dim6 3 -80.0 # orig: 240.0
set param_card dim6 4 0.0 # orig: 12.0
set param_card dim6 5 0.0 # orig: 120.0
</weight>
<weight id='rwgt_329'>set param_card dim6 1 0.0 # orig: 25.0
set param_card dim6 2 80.0 # orig: 240.0
set param_card dim6 3 160.0 # orig: 240.0
set param_card dim6 4 0.0 # orig: 12.0
set param_card dim6 5 0.0 # orig: 120.0
</weight>
<weight id='rwgt_330'>set param_card dim6 1 0.0 # orig: 25.0
set param_card dim6 2 80.0 # orig: 240.0
set param_card dim6 3 -160.0 # orig: 240.0
set param_card dim6 4 0.0 # orig: 12.0
set param_card dim6 5 0.0 # orig: 120.0
</weight>
<weight id='rwgt_331'>set param_card dim6 1 0.0 # orig: 25.0
set param_card dim6 2 -80.0 # orig: 240.0
set param_card dim6 3 160.0 # orig: 240.0
set param_card dim6 4 0.0 # orig: 12.0
set param_card dim6 5 0.0 # orig: 120.0
</weight>
<weight id='rwgt_332'>set param_card dim6 1 0.0 # orig: 25.0
set param_card dim6 2 -80.0 # orig: 240.0
set param_card dim6 3 -160.0 # orig: 240.0
set param_card dim6 4 0.0 # orig: 12.0
set param_card dim6 5 0.0 # orig: 120.0
</weight>
<weight id='rwgt_333'>set param_card dim6 1 0.0 # orig: 25.0
set param_card dim6 2 80.0 # orig: 240.0
set param_card dim6 4 0.0 # orig: 12.0
set param_card dim6 5 0.0 # orig: 120.0
</weight>
<weight id='rwgt_334'>set param_card dim6 1 0.0 # orig: 25.0
set param_card dim6 2 80.0 # orig: 240.0
set param_card dim6 3 -240.0 # orig: 240.0
set param_card dim6 4 0.0 # orig: 12.0
set param_card dim6 5 0.0 # orig: 120.0
</weight>
<weight id='rwgt_335'>set param_card dim6 1 0.0 # orig: 25.0
set param_card dim6 2 -80.0 # orig: 240.0
set param_card dim6 4 0.0 # orig: 12.0
set param_card dim6 5 0.0 # orig: 120.0
</weight>
<weight id='rwgt_336'>set param_card dim6 1 0.0 # orig: 25.0
set param_card dim6 2 -80.0 # orig: 240.0
set param_card dim6 3 -240.0 # orig: 240.0
set param_card dim6 4 0.0 # orig: 12.0
set param_card dim6 5 0.0 # orig: 120.0
</weight>
<weight id='rwgt_337'>set param_card dim6 1 0.0 # orig: 25.0
set param_card dim6 2 80.0 # orig: 240.0
set param_card dim6 3 0.0 # orig: 240.0
set param_card dim6 4 0.0 # orig: 12.0
set param_card dim6 5 0.0 # orig: 120.0
</weight>
<weight id='rwgt_338'>set param_card dim6 1 0.0 # orig: 25.0
set param_card dim6 2 -80.0 # orig: 240.0
set param_card dim6 3 0.0 # orig: 240.0
set param_card dim6 4 0.0 # orig: 12.0
set param_card dim6 5 0.0 # orig: 120.0
</weight>
<weight id='rwgt_339'>set param_card dim6 1 0.0 # orig: 25.0
set param_card dim6 2 160.0 # orig: 240.0
set param_card dim6 3 80.0 # orig: 240.0
set param_card dim6 4 0.0 # orig: 12.0
set param_card dim6 5 0.0 # orig: 120.0
</weight>
<weight id='rwgt_340'>set param_card dim6 1 0.0 # orig: 25.0
set param_card dim6 2 160.0 # orig: 240.0
set param_card dim6 3 -80.0 # orig: 240.0
set param_card dim6 4 0.0 # orig: 12.0
set param_card dim6 5 0.0 # orig: 120.0
</weight>
<weight id='rwgt_341'>set param_card dim6 1 0.0 # orig: 25.0
set param_card dim6 2 -160.0 # orig: 240.0
set param_card dim6 3 80.0 # orig: 240.0
set param_card dim6 4 0.0 # orig: 12.0
set param_card dim6 5 0.0 # orig: 120.0
</weight>
<weight id='rwgt_342'>set param_card dim6 1 0.0 # orig: 25.0
set param_card dim6 2 -160.0 # orig: 240.0
set param_card dim6 3 -80.0 # orig: 240.0
set param_card dim6 4 0.0 # orig: 12.0
set param_card dim6 5 0.0 # orig: 120.0
</weight>
<weight id='rwgt_343'>set param_card dim6 1 0.0 # orig: 25.0
set param_card dim6 2 160.0 # orig: 240.0
set param_card dim6 3 160.0 # orig: 240.0
set param_card dim6 4 0.0 # orig: 12.0
set param_card dim6 5 0.0 # orig: 120.0
</weight>
<weight id='rwgt_344'>set param_card dim6 1 0.0 # orig: 25.0
set param_card dim6 2 160.0 # orig: 240.0
set param_card dim6 3 -160.0 # orig: 240.0
set param_card dim6 4 0.0 # orig: 12.0
set param_card dim6 5 0.0 # orig: 120.0
</weight>
<weight id='rwgt_345'>set param_card dim6 1 0.0 # orig: 25.0
set param_card dim6 2 -160.0 # orig: 240.0
set param_card dim6 3 160.0 # orig: 240.0
set param_card dim6 4 0.0 # orig: 12.0
set param_card dim6 5 0.0 # orig: 120.0
</weight>
<weight id='rwgt_346'>set param_card dim6 1 0.0 # orig: 25.0
set param_card dim6 2 -160.0 # orig: 240.0
set param_card dim6 3 -160.0 # orig: 240.0
set param_card dim6 4 0.0 # orig: 12.0
set param_card dim6 5 0.0 # orig: 120.0
</weight>
<weight id='rwgt_347'>set param_card dim6 1 0.0 # orig: 25.0
set param_card dim6 2 160.0 # orig: 240.0
set param_card dim6 4 0.0 # orig: 12.0
set param_card dim6 5 0.0 # orig: 120.0
</weight>
<weight id='rwgt_348'>set param_card dim6 1 0.0 # orig: 25.0
set param_card dim6 2 160.0 # orig: 240.0
set param_card dim6 3 -240.0 # orig: 240.0
set param_card dim6 4 0.0 # orig: 12.0
set param_card dim6 5 0.0 # orig: 120.0
</weight>
<weight id='rwgt_349'>set param_card dim6 1 0.0 # orig: 25.0
set param_card dim6 2 -160.0 # orig: 240.0
set param_card dim6 4 0.0 # orig: 12.0
set param_card dim6 5 0.0 # orig: 120.0
</weight>
<weight id='rwgt_350'>set param_card dim6 1 0.0 # orig: 25.0
set param_card dim6 2 -160.0 # orig: 240.0
set param_card dim6 3 -240.0 # orig: 240.0
set param_card dim6 4 0.0 # orig: 12.0
set param_card dim6 5 0.0 # orig: 120.0
</weight>
<weight id='rwgt_351'>set param_card dim6 1 0.0 # orig: 25.0
set param_card dim6 2 160.0 # orig: 240.0
set param_card dim6 3 0.0 # orig: 240.0
set param_card dim6 4 0.0 # orig: 12.0
set param_card dim6 5 0.0 # orig: 120.0
</weight>
<weight id='rwgt_352'>set param_card dim6 1 0.0 # orig: 25.0
set param_card dim6 2 -160.0 # orig: 240.0
set param_card dim6 3 0.0 # orig: 240.0
set param_card dim6 4 0.0 # orig: 12.0
set param_card dim6 5 0.0 # orig: 120.0
</weight>
<weight id='rwgt_353'>set param_card dim6 1 0.0 # orig: 25.0
set param_card dim6 3 80.0 # orig: 240.0
set param_card dim6 4 0.0 # orig: 12.0
set param_card dim6 5 0.0 # orig: 120.0
</weight>
<weight id='rwgt_354'>set param_card dim6 1 0.0 # orig: 25.0
set param_card dim6 3 -80.0 # orig: 240.0
set param_card dim6 4 0.0 # orig: 12.0
set param_card dim6 5 0.0 # orig: 120.0
</weight>
<weight id='rwgt_355'>set param_card dim6 1 0.0 # orig: 25.0
set param_card dim6 2 -240.0 # orig: 240.0
set param_card dim6 3 80.0 # orig: 240.0
set param_card dim6 4 0.0 # orig: 12.0
set param_card dim6 5 0.0 # orig: 120.0
</weight>
<weight id='rwgt_356'>set param_card dim6 1 0.0 # orig: 25.0
set param_card dim6 2 -240.0 # orig: 240.0
set param_card dim6 3 -80.0 # orig: 240.0
set param_card dim6 4 0.0 # orig: 12.0
set param_card dim6 5 0.0 # orig: 120.0
</weight>
<weight id='rwgt_357'>set param_card dim6 1 0.0 # orig: 25.0
set param_card dim6 3 160.0 # orig: 240.0
set param_card dim6 4 0.0 # orig: 12.0
set param_card dim6 5 0.0 # orig: 120.0
</weight>
<weight id='rwgt_358'>set param_card dim6 1 0.0 # orig: 25.0
set param_card dim6 3 -160.0 # orig: 240.0
set param_card dim6 4 0.0 # orig: 12.0
set param_card dim6 5 0.0 # orig: 120.0
</weight>
<weight id='rwgt_359'>set param_card dim6 1 0.0 # orig: 25.0
set param_card dim6 2 -240.0 # orig: 240.0
set param_card dim6 3 160.0 # orig: 240.0
set param_card dim6 4 0.0 # orig: 12.0
set param_card dim6 5 0.0 # orig: 120.0
</weight>
<weight id='rwgt_360'>set param_card dim6 1 0.0 # orig: 25.0
set param_card dim6 2 -240.0 # orig: 240.0
set param_card dim6 3 -160.0 # orig: 240.0
set param_card dim6 4 0.0 # orig: 12.0
set param_card dim6 5 0.0 # orig: 120.0
</weight>
<weight id='rwgt_361'>set param_card dim6 1 0.0 # orig: 25.0
set param_card dim6 4 0.0 # orig: 12.0
set param_card dim6 5 0.0 # orig: 120.0
</weight>
<weight id='rwgt_362'>set param_card dim6 1 0.0 # orig: 25.0
set param_card dim6 3 -240.0 # orig: 240.0
set param_card dim6 4 0.0 # orig: 12.0
set param_card dim6 5 0.0 # orig: 120.0
</weight>
<weight id='rwgt_363'>set param_card dim6 1 0.0 # orig: 25.0
set param_card dim6 2 -240.0 # orig: 240.0
set param_card dim6 4 0.0 # orig: 12.0
set param_card dim6 5 0.0 # orig: 120.0
</weight>
<weight id='rwgt_364'>set param_card dim6 1 0.0 # orig: 25.0
set param_card dim6 2 -240.0 # orig: 240.0
set param_card dim6 3 -240.0 # orig: 240.0
set param_card dim6 4 0.0 # orig: 12.0
set param_card dim6 5 0.0 # orig: 120.0
</weight>
<weight id='rwgt_365'>set param_card dim6 1 0.0 # orig: 25.0
set param_card dim6 3 0.0 # orig: 240.0
set param_card dim6 4 0.0 # orig: 12.0
set param_card dim6 5 0.0 # orig: 120.0
</weight>
<weight id='rwgt_366'>set param_card dim6 1 0.0 # orig: 25.0
set param_card dim6 2 -240.0 # orig: 240.0
set param_card dim6 3 0.0 # orig: 240.0
set param_card dim6 4 0.0 # orig: 12.0
set param_card dim6 5 0.0 # orig: 120.0
</weight>
<weight id='rwgt_367'>set param_card dim6 1 0.0 # orig: 25.0
set param_card dim6 2 0.0 # orig: 240.0
set param_card dim6 3 80.0 # orig: 240.0
set param_card dim6 4 0.0 # orig: 12.0
set param_card dim6 5 0.0 # orig: 120.0
</weight>
<weight id='rwgt_368'>set param_card dim6 1 0.0 # orig: 25.0
set param_card dim6 2 0.0 # orig: 240.0
set param_card dim6 3 -80.0 # orig: 240.0
set param_card dim6 4 0.0 # orig: 12.0
set param_card dim6 5 0.0 # orig: 120.0
</weight>
<weight id='rwgt_369'>set param_card dim6 1 0.0 # orig: 25.0
set param_card dim6 2 0.0 # orig: 240.0
set param_card dim6 3 160.0 # orig: 240.0
set param_card dim6 4 0.0 # orig: 12.0
set param_card dim6 5 0.0 # orig: 120.0
</weight>
<weight id='rwgt_370'>set param_card dim6 1 0.0 # orig: 25.0
set param_card dim6 2 0.0 # orig: 240.0
set param_card dim6 3 -160.0 # orig: 240.0
set param_card dim6 4 0.0 # orig: 12.0
set param_card dim6 5 0.0 # orig: 120.0
</weight>
<weight id='rwgt_371'>set param_card dim6 1 0.0 # orig: 25.0
set param_card dim6 2 0.0 # orig: 240.0
set param_card dim6 4 0.0 # orig: 12.0
set param_card dim6 5 0.0 # orig: 120.0
</weight>
<weight id='rwgt_372'>set param_card dim6 1 0.0 # orig: 25.0
set param_card dim6 2 0.0 # orig: 240.0
set param_card dim6 3 -240.0 # orig: 240.0
set param_card dim6 4 0.0 # orig: 12.0
set param_card dim6 5 0.0 # orig: 120.0
</weight>
<weight id='rwgt_373'>set param_card dim6 1 0.0 # orig: 25.0
set param_card dim6 2 0.0 # orig: 240.0
set param_card dim6 3 0.0 # orig: 240.0
set param_card dim6 4 0.0 # orig: 12.0
set param_card dim6 5 0.0 # orig: 120.0
</weight>
</weightgroup>
]]>
</initrwgt>
<scalesfunctionalform>
muR  FxFx merging scale
    muF1 FxFx merging scale
    muF2 FxFx merging scale
    QES  H_T/2 := sum_i mT(i)/2, i=final state
</scalesfunctionalform>
</header>
<init>
2212   2212 0.65000000E+04 0.65000000E+04 -1 -1 292200 292200 -4   2
 0.21822222E+02 0.67166366E-01 0.99972252E+02      1
 0.30252239E+02 0.44084866E-01 0.99972252E+02      0
</init>
<event npLO=" -1 " npNLO=" 1 ">
 7      1 +9.9972252e+01 4.55591600e+01 7.54677110e-03 1.31826760e-01
       -3 -1    0    0    0  501 +0.0000000000e+00 +0.0000000000e+00 +2.3788169000e+01 2.3788169000e+01 0.0000000000e+00 0.0000e+00 9.0000e+00
        4 -1    0    0  502    0 -0.0000000000e+00 -0.0000000000e+00 -8.4591248000e+02 8.4591248000e+02 0.0000000000e+00 0.0000e+00 9.0000e+00
       24  2    1    2    0    0 +9.3405203000e+00 +7.0819504000e+01 -1.9923069000e+02 2.2616861000e+02 7.9729093000e+01 0.0000e+00 0.0000e+00
      -15  1    3    3    0    0 -3.3142863000e+01 +4.9339863000e+01 -1.0946099000e+02 1.2455754000e+02 0.0000000000e+00 0.0000e+00 9.0000e+00
       16  1    3    3    0    0 +4.2483384000e+01 +2.1479641000e+01 -8.9769697000e+01 1.0161108000e+02 0.0000000000e+00 0.0000e+00 9.0000e+00
       22  1    1    2    0    0 +1.2438901000e+01 -1.1083567000e+02 -3.6552185000e+02 3.8215899000e+02 0.0000000000e+00 0.0000e+00 9.0000e+00
       21  1    1    2  502  501 -2.1779421000e+01 +4.0016170000e+01 -2.5737178000e+02 2.6137305000e+02 0.0000000000e+00 0.0000e+00 9.0000e+00
#aMCatNLO 1  0  0  0  0 0.00000000E+00 0.00000000E+00 -9  7  0 0.00000000E+00 0.00000000E+00 0.00000000E+00 0.00000000E+00 0.00000000E+00
<rwgt>
<wgt id='1001'> +9.9973000e+01 </wgt>
<wgt id='1002'> +8.0123000e+01 </wgt>
<wgt id='1003'> +1.2839000e+02 </wgt>
<wgt id='1004'> +1.0720000e+02 </wgt>
<wgt id='1005'> +8.5914000e+01 </wgt>
<wgt id='1006'> +1.3767000e+02 </wgt>
<wgt id='1007'> +9.1064000e+01 </wgt>
<wgt id='1008'> +7.2983000e+01 </wgt>
<wgt id='1009'> +1.1695000e+02 </wgt>
<wgt id='1010'> +9.9973000e+01 </wgt>
<wgt id='1011'> +9.5227000e+01 </wgt>
<wgt id='1012'> +9.4687000e+01 </wgt>
<wgt id='1013'> +8.5710000e+01 </wgt>
<wgt id='1014'> +8.9077000e+01 </wgt>
<wgt id='1015'> +9.4739000e+01 </wgt>
<wgt id='1016'> +1.0035000e+02 </wgt>
<wgt id='1017'> +9.9667000e+01 </wgt>
<wgt id='1018'> +1.0109000e+02 </wgt>
<wgt id='1019'> +9.9238000e+01 </wgt>
<wgt id='1020'> +1.2187000e+02 </wgt>
<wgt id='1021'> +1.2427000e+02 </wgt>
<wgt id='1022'> +9.5286000e+01 </wgt>
<wgt id='1023'> +9.0676000e+01 </wgt>
<wgt id='1024'> +1.1428000e+02 </wgt>
<wgt id='1025'> +1.0379000e+02 </wgt>
<wgt id='1026'> +1.0356000e+02 </wgt>
<wgt id='1027'> +1.1199000e+02 </wgt>
<wgt id='1028'> +1.0523000e+02 </wgt>
<wgt id='1029'> +9.5444000e+01 </wgt>
<wgt id='1030'> +9.0018000e+01 </wgt>
<wgt id='1031'> +8.8614000e+01 </wgt>
<wgt id='1032'> +1.0713000e+02 </wgt>
<wgt id='1033'> +9.6552000e+01 </wgt>
<wgt id='1034'> +8.7612000e+01 </wgt>
<wgt id='1035'> +9.5023000e+01 </wgt>
<wgt id='1036'> +1.0063000e+02 </wgt>
<wgt id='1037'> +1.0422000e+02 </wgt>
<wgt id='1038'> +1.0325000e+02 </wgt>
<wgt id='1039'> +9.4551000e+01 </wgt>
<wgt id='1040'> +9.0284000e+01 </wgt>
<wgt id='1041'> +8.6020000e+01 </wgt>
<wgt id='1042'> +1.2355000e+02 </wgt>
<wgt id='1043'> +9.7504000e+01 </wgt>
<wgt id='1044'> +9.5024000e+01 </wgt>
<wgt id='1045'> +9.8456000e+01 </wgt>
<wgt id='1046'> +9.3092000e+01 </wgt>
<wgt id='1047'> +9.9561000e+01 </wgt>
<wgt id='1048'> +1.1603000e+02 </wgt>
<wgt id='1049'> +9.5627000e+01 </wgt>
<wgt id='1050'> +9.4515000e+01 </wgt>
<wgt id='1051'> +9.3509000e+01 </wgt>
<wgt id='1052'> +9.4088000e+01 </wgt>
<wgt id='1053'> +9.5976000e+01 </wgt>
<wgt id='1054'> +1.0138000e+02 </wgt>
<wgt id='1055'> +1.0244000e+02 </wgt>
<wgt id='1056'> +9.2389000e+01 </wgt>
<wgt id='1057'> +1.0585000e+02 </wgt>
<wgt id='1058'> +1.0118000e+02 </wgt>
<wgt id='1059'> +9.7346000e+01 </wgt>
<wgt id='1060'> +9.3611000e+01 </wgt>
<wgt id='1061'> +9.7936000e+01 </wgt>
<wgt id='1062'> +9.8307000e+01 </wgt>
<wgt id='1063'> +1.0888000e+02 </wgt>
<wgt id='1064'> +9.8795000e+01 </wgt>
<wgt id='1065'> +1.0025000e+02 </wgt>
<wgt id='1066'> +1.0459000e+02 </wgt>
<wgt id='1067'> +8.5927000e+01 </wgt>
<wgt id='1068'> +9.7180000e+01 </wgt>
<wgt id='1069'> +9.3249000e+01 </wgt>
<wgt id='1070'> +9.8273000e+01 </wgt>
<wgt id='1071'> +9.7649000e+01 </wgt>
<wgt id='1072'> +9.5792000e+01 </wgt>
<wgt id='1073'> +9.5485000e+01 </wgt>
<wgt id='1074'> +1.1558000e+02 </wgt>
<wgt id='1075'> +9.3287000e+01 </wgt>
<wgt id='1076'> +9.6520000e+01 </wgt>
<wgt id='1077'> +1.2089000e+02 </wgt>
<wgt id='1078'> +9.7633000e+01 </wgt>
<wgt id='1079'> +1.0695000e+02 </wgt>
<wgt id='1080'> +1.0044000e+02 </wgt>
<wgt id='1081'> +1.0230000e+02 </wgt>
<wgt id='1082'> +1.1535000e+02 </wgt>
<wgt id='1083'> +1.3054000e+02 </wgt>
<wgt id='1084'> +9.5577000e+01 </wgt>
<wgt id='1085'> +9.7829000e+01 </wgt>
<wgt id='1086'> +1.1554000e+02 </wgt>
<wgt id='1087'> +1.0418000e+02 </wgt>
<wgt id='1088'> +9.7517000e+01 </wgt>
<wgt id='1089'> +1.0764000e+02 </wgt>
<wgt id='1090'> +9.7128000e+01 </wgt>
<wgt id='1091'> +9.9849000e+01 </wgt>
<wgt id='1092'> +9.4413000e+01 </wgt>
<wgt id='1093'> +9.8001000e+01 </wgt>
<wgt id='1094'> +9.7364000e+01 </wgt>
<wgt id='1095'> +1.0070000e+02 </wgt>
<wgt id='1096'> +1.0451000e+02 </wgt>
<wgt id='1097'> +1.0554000e+02 </wgt>
<wgt id='1098'> +9.7873000e+01 </wgt>
<wgt id='1099'> +1.0215000e+02 </wgt>
<wgt id='1100'> +9.5544000e+01 </wgt>
<wgt id='1101'> +9.3699000e+01 </wgt>
<wgt id='1102'> +9.7578000e+01 </wgt>
<wgt id='1103'> +1.0194000e+02 </wgt>
<wgt id='1104'> +9.8476000e+01 </wgt>
<wgt id='1105'> +1.0158000e+02 </wgt>
<wgt id='1106'> +1.0421000e+02 </wgt>
<wgt id='1107'> +9.6964000e+01 </wgt>
<wgt id='1108'> +8.9925000e+01 </wgt>
<wgt id='1109'> +9.2283000e+01 </wgt>
<wgt id='1110'> +9.4420000e+01 </wgt>
<wgt id='1111'> +9.4553000e+01 </wgt>
<wgt id='1112'> +1.0276000e+02 </wgt>
<wgt id='rwgt_1'> +8.5370575e-02 </wgt>
<wgt id='rwgt_2'> +8.5370575e-02 </wgt>
<wgt id='rwgt_3'> +7.6833517e-01 </wgt>
<wgt id='rwgt_4'> +7.6833517e-01 </wgt>
<wgt id='rwgt_5'> +2.1342644e+00 </wgt>
<wgt id='rwgt_6'> +2.1342644e+00 </wgt>
<wgt id='rwgt_7'> +1.8471384e+00 </wgt>
<wgt id='rwgt_8'> +1.8471384e+00 </wgt>
<wgt id='rwgt_9'> +7.3885537e+00 </wgt>
<wgt id='rwgt_10'> +7.3885537e+00 </wgt>
<wgt id='rwgt_11'> +1.6624246e+01 </wgt>
<wgt id='rwgt_12'> +1.6624246e+01 </wgt>
<wgt id='rwgt_13'> +1.8471384e+00 </wgt>
<wgt id='rwgt_14'> +1.8471384e+00 </wgt>
<wgt id='rwgt_15'> +7.3885537e+00 </wgt>
<wgt id='rwgt_16'> +7.3885537e+00 </wgt>
<wgt id='rwgt_17'> +1.6624246e+01 </wgt>
<wgt id='rwgt_18'> +1.6624246e+01 </wgt>
<wgt id='rwgt_19'> +2.1854865e-01 </wgt>
<wgt id='rwgt_20'> +2.1854865e-01 </wgt>
<wgt id='rwgt_21'> +8.7419460e-01 </wgt>
<wgt id='rwgt_22'> +8.7419460e-01 </wgt>
<wgt id='rwgt_23'> +1.9669379e+00 </wgt>
<wgt id='rwgt_24'> +1.9669379e+00 </wgt>
<wgt id='rwgt_25'> +1.8471385e+00 </wgt>
<wgt id='rwgt_26'> +1.8471385e+00 </wgt>
<wgt id='rwgt_27'> +7.3885540e+00 </wgt>
<wgt id='rwgt_28'> +7.3885540e+00 </wgt>
<wgt id='rwgt_29'> +1.6624246e+01 </wgt>
<wgt id='rwgt_30'> +1.6624246e+01 </wgt>
<wgt id='rwgt_31'> +8.3953301e+00 </wgt>
<wgt id='rwgt_32'> +8.5370575e-02 </wgt>
<wgt id='rwgt_33'> +8.5370575e-02 </wgt>
<wgt id='rwgt_34'> +6.5525185e+00 </wgt>
<wgt id='rwgt_35'> +1.8091725e+01 </wgt>
<wgt id='rwgt_36'> +1.4718061e+00 </wgt>
<wgt id='rwgt_37'> +2.3932119e+00 </wgt>
<wgt id='rwgt_38'> +1.5327508e+01 </wgt>
<wgt id='rwgt_39'> +3.1482397e+01 </wgt>
<wgt id='rwgt_40'> +6.5525185e+00 </wgt>
<wgt id='rwgt_41'> +8.3953301e+00 </wgt>
<wgt id='rwgt_42'> +2.7796774e+01 </wgt>
<wgt id='rwgt_43'> +2.3932119e+00 </wgt>
<wgt id='rwgt_44'> +1.4718061e+00 </wgt>
<wgt id='rwgt_45'> +1.8091725e+01 </wgt>
<wgt id='rwgt_46'> +2.3932119e+00 </wgt>
<wgt id='rwgt_47'> +1.4718061e+00 </wgt>
<wgt id='rwgt_48'> +1.5327508e+01 </wgt>
<wgt id='rwgt_49'> +3.1482397e+01 </wgt>
<wgt id='rwgt_50'> +8.5370575e-02 </wgt>
<wgt id='rwgt_51'> +8.5370575e-02 </wgt>
<wgt id='rwgt_52'> +2.7796774e+01 </wgt>
<wgt id='rwgt_53'> +4.8567346e+01 </wgt>
<wgt id='rwgt_54'> +1.4718061e+00 </wgt>
<wgt id='rwgt_55'> +2.3932119e+00 </wgt>
<wgt id='rwgt_56'> +4.3960317e+01 </wgt>
<wgt id='rwgt_57'> +8.3953301e+00 </wgt>
<wgt id='rwgt_58'> +6.5525185e+00 </wgt>
<wgt id='rwgt_59'> +3.1482397e+01 </wgt>
<wgt id='rwgt_60'> +8.3953301e+00 </wgt>
<wgt id='rwgt_61'> +6.5525185e+00 </wgt>
<wgt id='rwgt_62'> +2.7796774e+01 </wgt>
<wgt id='rwgt_63'> +4.8567346e+01 </wgt>
<wgt id='rwgt_64'> +2.3932119e+00 </wgt>
<wgt id='rwgt_65'> +1.4718061e+00 </wgt>
<wgt id='rwgt_66'> +4.3960317e+01 </wgt>
<wgt id='rwgt_67'> +6.9346572e+01 </wgt>
<wgt id='rwgt_68'> +8.5370575e-02 </wgt>
<wgt id='rwgt_69'> +8.5370575e-02 </wgt>
<wgt id='rwgt_70'> +6.3818137e+01 </wgt>
<wgt id='rwgt_71'> +1.8091725e+01 </wgt>
<wgt id='rwgt_72'> +1.5327508e+01 </wgt>
<wgt id='rwgt_73'> +2.3932119e+00 </wgt>
<wgt id='rwgt_74'> +1.4718061e+00 </wgt>
<wgt id='rwgt_75'> +8.3953301e+00 </wgt>
<wgt id='rwgt_76'> +6.5525185e+00 </wgt>
<wgt id='rwgt_77'> +1.8091725e+01 </wgt>
<wgt id='rwgt_78'> +1.5327508e+01 </wgt>
<wgt id='rwgt_79'> +8.5370575e-02 </wgt>
<wgt id='rwgt_80'> +6.5525185e+00 </wgt>
<wgt id='rwgt_81'> +8.5370575e-02 </wgt>
<wgt id='rwgt_82'> +8.5370575e-02 </wgt>
<wgt id='rwgt_83'> +8.3953301e+00 </wgt>
<wgt id='rwgt_84'> +1.5327508e+01 </wgt>
<wgt id='rwgt_85'> +2.3932119e+00 </wgt>
<wgt id='rwgt_86'> +1.4718061e+00 </wgt>
<wgt id='rwgt_87'> +1.8091725e+01 </wgt>
<wgt id='rwgt_88'> +2.7796774e+01 </wgt>
<wgt id='rwgt_89'> +8.3953301e+00 </wgt>
<wgt id='rwgt_90'> +6.5525185e+00 </wgt>
<wgt id='rwgt_91'> +3.1482397e+01 </wgt>
<wgt id='rwgt_92'> +1.4718061e+00 </wgt>
<wgt id='rwgt_93'> +2.3932119e+00 </wgt>
<wgt id='rwgt_94'> +1.5327508e+01 </wgt>
<wgt id='rwgt_95'> +1.4718061e+00 </wgt>
<wgt id='rwgt_96'> +2.3932119e+00 </wgt>
<wgt id='rwgt_97'> +1.8091725e+01 </wgt>
<wgt id='rwgt_98'> +2.7796774e+01 </wgt>
<wgt id='rwgt_99'> +8.5370575e-02 </wgt>
<wgt id='rwgt_100'> +8.5370575e-02 </wgt>
<wgt id='rwgt_101'> +3.1482397e+01 </wgt>
<wgt id='rwgt_102'> +4.3960317e+01 </wgt>
<wgt id='rwgt_103'> +2.3932119e+00 </wgt>
<wgt id='rwgt_104'> +1.4718061e+00 </wgt>
<wgt id='rwgt_105'> +4.8567346e+01 </wgt>
<wgt id='rwgt_106'> +6.5525185e+00 </wgt>
<wgt id='rwgt_107'> +8.3953301e+00 </wgt>
<wgt id='rwgt_108'> +2.7796774e+01 </wgt>
<wgt id='rwgt_109'> +6.5525185e+00 </wgt>
<wgt id='rwgt_110'> +8.3953301e+00 </wgt>
<wgt id='rwgt_111'> +3.1482397e+01 </wgt>
<wgt id='rwgt_112'> +4.3960317e+01 </wgt>
<wgt id='rwgt_113'> +1.4718061e+00 </wgt>
<wgt id='rwgt_114'> +2.3932119e+00 </wgt>
<wgt id='rwgt_115'> +4.8567346e+01 </wgt>
<wgt id='rwgt_116'> +6.3818137e+01 </wgt>
<wgt id='rwgt_117'> +8.5370575e-02 </wgt>
<wgt id='rwgt_118'> +8.5370575e-02 </wgt>
<wgt id='rwgt_119'> +6.9346572e+01 </wgt>
<wgt id='rwgt_120'> +1.5327508e+01 </wgt>
<wgt id='rwgt_121'> +1.8091725e+01 </wgt>
<wgt id='rwgt_122'> +1.4718061e+00 </wgt>
<wgt id='rwgt_123'> +2.3932119e+00 </wgt>
<wgt id='rwgt_124'> +6.5525185e+00 </wgt>
<wgt id='rwgt_125'> +8.3953301e+00 </wgt>
<wgt id='rwgt_126'> +1.5327508e+01 </wgt>
<wgt id='rwgt_127'> +1.8091725e+01 </wgt>
<wgt id='rwgt_128'> +8.5370575e-02 </wgt>
<wgt id='rwgt_129'> +1.0921106e+01 </wgt>
<wgt id='rwgt_130'> +7.6833517e-01 </wgt>
<wgt id='rwgt_131'> +7.6833517e-01 </wgt>
<wgt id='rwgt_132'> +5.3926715e+00 </wgt>
<wgt id='rwgt_133'> +2.1538907e+01 </wgt>
<wgt id='rwgt_134'> +1.2333649e+00 </wgt>
<wgt id='rwgt_135'> +3.9975823e+00 </wgt>
<wgt id='rwgt_136'> +1.3246255e+01 </wgt>
<wgt id='rwgt_137'> +3.5850985e+01 </wgt>
<wgt id='rwgt_138'> +5.3926715e+00 </wgt>
<wgt id='rwgt_139'> +1.0921106e+01 </wgt>
<wgt id='rwgt_140'> +2.4794115e+01 </wgt>
<wgt id='rwgt_141'> +3.9975823e+00 </wgt>
<wgt id='rwgt_142'> +1.2333649e+00 </wgt>
<wgt id='rwgt_143'> +2.1538907e+01 </wgt>
<wgt id='rwgt_144'> +3.9975823e+00 </wgt>
<wgt id='rwgt_145'> +1.2333649e+00 </wgt>
<wgt id='rwgt_146'> +1.3246255e+01 </wgt>
<wgt id='rwgt_147'> +3.5850985e+01 </wgt>
<wgt id='rwgt_148'> +7.6833517e-01 </wgt>
<wgt id='rwgt_149'> +7.6833517e-01 </wgt>
<wgt id='rwgt_150'> +2.4794115e+01 </wgt>
<wgt id='rwgt_151'> +5.3857340e+01 </wgt>
<wgt id='rwgt_152'> +1.2333649e+00 </wgt>
<wgt id='rwgt_153'> +3.9975823e+00 </wgt>
<wgt id='rwgt_154'> +4.0036253e+01 </wgt>
<wgt id='rwgt_155'> +1.0921106e+01 </wgt>
<wgt id='rwgt_156'> +5.3926715e+00 </wgt>
<wgt id='rwgt_157'> +3.5850985e+01 </wgt>
<wgt id='rwgt_158'> +1.0921106e+01 </wgt>
<wgt id='rwgt_159'> +5.3926715e+00 </wgt>
<wgt id='rwgt_160'> +2.4794115e+01 </wgt>
<wgt id='rwgt_161'> +5.3857340e+01 </wgt>
<wgt id='rwgt_162'> +3.9975823e+00 </wgt>
<wgt id='rwgt_163'> +1.2333649e+00 </wgt>
<wgt id='rwgt_164'> +4.0036253e+01 </wgt>
<wgt id='rwgt_165'> +7.5557971e+01 </wgt>
<wgt id='rwgt_166'> +7.6833517e-01 </wgt>
<wgt id='rwgt_167'> +7.6833517e-01 </wgt>
<wgt id='rwgt_168'> +5.8972667e+01 </wgt>
<wgt id='rwgt_169'> +2.1538907e+01 </wgt>
<wgt id='rwgt_170'> +1.3246255e+01 </wgt>
<wgt id='rwgt_171'> +3.9975823e+00 </wgt>
<wgt id='rwgt_172'> +1.2333649e+00 </wgt>
<wgt id='rwgt_173'> +1.0921106e+01 </wgt>
<wgt id='rwgt_174'> +5.3926715e+00 </wgt>
<wgt id='rwgt_175'> +2.1538907e+01 </wgt>
<wgt id='rwgt_176'> +1.3246255e+01 </wgt>
<wgt id='rwgt_177'> +7.6833517e-01 </wgt>
<wgt id='rwgt_178'> +5.3926715e+00 </wgt>
<wgt id='rwgt_179'> +7.6833517e-01 </wgt>
<wgt id='rwgt_180'> +7.6833517e-01 </wgt>
<wgt id='rwgt_181'> +1.0921106e+01 </wgt>
<wgt id='rwgt_182'> +1.3246255e+01 </wgt>
<wgt id='rwgt_183'> +3.9975823e+00 </wgt>
<wgt id='rwgt_184'> +1.2333649e+00 </wgt>
<wgt id='rwgt_185'> +2.1538907e+01 </wgt>
<wgt id='rwgt_186'> +2.4794115e+01 </wgt>
<wgt id='rwgt_187'> +1.0921106e+01 </wgt>
<wgt id='rwgt_188'> +5.3926715e+00 </wgt>
<wgt id='rwgt_189'> +3.5850985e+01 </wgt>
<wgt id='rwgt_190'> +1.2333649e+00 </wgt>
<wgt id='rwgt_191'> +3.9975823e+00 </wgt>
<wgt id='rwgt_192'> +1.3246255e+01 </wgt>
<wgt id='rwgt_193'> +1.2333649e+00 </wgt>
<wgt id='rwgt_194'> +3.9975823e+00 </wgt>
<wgt id='rwgt_195'> +2.1538907e+01 </wgt>
<wgt id='rwgt_196'> +2.4794115e+01 </wgt>
<wgt id='rwgt_197'> +7.6833517e-01 </wgt>
<wgt id='rwgt_198'> +7.6833517e-01 </wgt>
<wgt id='rwgt_199'> +3.5850985e+01 </wgt>
<wgt id='rwgt_200'> +4.0036253e+01 </wgt>
<wgt id='rwgt_201'> +3.9975823e+00 </wgt>
<wgt id='rwgt_202'> +1.2333649e+00 </wgt>
<wgt id='rwgt_203'> +5.3857340e+01 </wgt>
<wgt id='rwgt_204'> +5.3926715e+00 </wgt>
<wgt id='rwgt_205'> +1.0921106e+01 </wgt>
<wgt id='rwgt_206'> +2.4794115e+01 </wgt>
<wgt id='rwgt_207'> +5.3926715e+00 </wgt>
<wgt id='rwgt_208'> +1.0921106e+01 </wgt>
<wgt id='rwgt_209'> +3.5850985e+01 </wgt>
<wgt id='rwgt_210'> +4.0036253e+01 </wgt>
<wgt id='rwgt_211'> +1.2333649e+00 </wgt>
<wgt id='rwgt_212'> +3.9975823e+00 </wgt>
<wgt id='rwgt_213'> +5.3857340e+01 </wgt>
<wgt id='rwgt_214'> +5.8972667e+01 </wgt>
<wgt id='rwgt_215'> +7.6833517e-01 </wgt>
<wgt id='rwgt_216'> +7.6833517e-01 </wgt>
<wgt id='rwgt_217'> +7.5557971e+01 </wgt>
<wgt id='rwgt_218'> +1.3246255e+01 </wgt>
<wgt id='rwgt_219'> +2.1538907e+01 </wgt>
<wgt id='rwgt_220'> +1.2333649e+00 </wgt>
<wgt id='rwgt_221'> +3.9975823e+00 </wgt>
<wgt id='rwgt_222'> +5.3926715e+00 </wgt>
<wgt id='rwgt_223'> +1.0921106e+01 </wgt>
<wgt id='rwgt_224'> +1.3246255e+01 </wgt>
<wgt id='rwgt_225'> +2.1538907e+01 </wgt>
<wgt id='rwgt_226'> +7.6833517e-01 </wgt>
<wgt id='rwgt_227'> +1.4129847e+01 </wgt>
<wgt id='rwgt_228'> +2.1342644e+00 </wgt>
<wgt id='rwgt_229'> +2.1342644e+00 </wgt>
<wgt id='rwgt_230'> +4.9157891e+00 </wgt>
<wgt id='rwgt_231'> +2.5669054e+01 </wgt>
<wgt id='rwgt_232'> +1.6778883e+00 </wgt>
<wgt id='rwgt_233'> +6.2849173e+00 </wgt>
<wgt id='rwgt_234'> +1.1847967e+01 </wgt>
<wgt id='rwgt_235'> +4.0902537e+01 </wgt>
<wgt id='rwgt_236'> +4.9157891e+00 </wgt>
<wgt id='rwgt_237'> +1.4129847e+01 </wgt>
<wgt id='rwgt_238'> +2.2474421e+01 </wgt>
<wgt id='rwgt_239'> +6.2849173e+00 </wgt>
<wgt id='rwgt_240'> +1.6778883e+00 </wgt>
<wgt id='rwgt_241'> +2.5669054e+01 </wgt>
<wgt id='rwgt_242'> +6.2849173e+00 </wgt>
<wgt id='rwgt_243'> +1.6778883e+00 </wgt>
<wgt id='rwgt_244'> +1.1847967e+01 </wgt>
<wgt id='rwgt_245'> +4.0902537e+01 </wgt>
<wgt id='rwgt_246'> +2.1342644e+00 </wgt>
<wgt id='rwgt_247'> +2.1342644e+00 </wgt>
<wgt id='rwgt_248'> +2.2474421e+01 </wgt>
<wgt id='rwgt_249'> +5.9830298e+01 </wgt>
<wgt id='rwgt_250'> +1.6778883e+00 </wgt>
<wgt id='rwgt_251'> +6.2849173e+00 </wgt>
<wgt id='rwgt_252'> +3.6795153e+01 </wgt>
<wgt id='rwgt_253'> +1.4129847e+01 </wgt>
<wgt id='rwgt_254'> +4.9157891e+00 </wgt>
<wgt id='rwgt_255'> +4.0902537e+01 </wgt>
<wgt id='rwgt_256'> +1.4129847e+01 </wgt>
<wgt id='rwgt_257'> +4.9157891e+00 </wgt>
<wgt id='rwgt_258'> +2.2474421e+01 </wgt>
<wgt id='rwgt_259'> +5.9830298e+01 </wgt>
<wgt id='rwgt_260'> +6.2849173e+00 </wgt>
<wgt id='rwgt_261'> +1.6778883e+00 </wgt>
<wgt id='rwgt_262'> +3.6795153e+01 </wgt>
<wgt id='rwgt_263'> +8.2452335e+01 </wgt>
<wgt id='rwgt_264'> +2.1342644e+00 </wgt>
<wgt id='rwgt_265'> +2.1342644e+00 </wgt>
<wgt id='rwgt_266'> +5.4810161e+01 </wgt>
<wgt id='rwgt_267'> +2.5669054e+01 </wgt>
<wgt id='rwgt_268'> +1.1847967e+01 </wgt>
<wgt id='rwgt_269'> +6.2849173e+00 </wgt>
<wgt id='rwgt_270'> +1.6778883e+00 </wgt>
<wgt id='rwgt_271'> +1.4129847e+01 </wgt>
<wgt id='rwgt_272'> +4.9157891e+00 </wgt>
<wgt id='rwgt_273'> +2.5669054e+01 </wgt>
<wgt id='rwgt_274'> +1.1847967e+01 </wgt>
<wgt id='rwgt_275'> +2.1342644e+00 </wgt>
<wgt id='rwgt_276'> +4.9157891e+00 </wgt>
<wgt id='rwgt_277'> +2.1342644e+00 </wgt>
<wgt id='rwgt_278'> +2.1342644e+00 </wgt>
<wgt id='rwgt_279'> +1.4129847e+01 </wgt>
<wgt id='rwgt_280'> +1.1847967e+01 </wgt>
<wgt id='rwgt_281'> +6.2849173e+00 </wgt>
<wgt id='rwgt_282'> +1.6778883e+00 </wgt>
<wgt id='rwgt_283'> +2.5669054e+01 </wgt>
<wgt id='rwgt_284'> +2.2474421e+01 </wgt>
<wgt id='rwgt_285'> +1.4129847e+01 </wgt>
<wgt id='rwgt_286'> +4.9157891e+00 </wgt>
<wgt id='rwgt_287'> +4.0902537e+01 </wgt>
<wgt id='rwgt_288'> +1.6778883e+00 </wgt>
<wgt id='rwgt_289'> +6.2849173e+00 </wgt>
<wgt id='rwgt_290'> +1.1847967e+01 </wgt>
<wgt id='rwgt_291'> +1.6778883e+00 </wgt>
<wgt id='rwgt_292'> +6.2849173e+00 </wgt>
<wgt id='rwgt_293'> +2.5669054e+01 </wgt>
<wgt id='rwgt_294'> +2.2474421e+01 </wgt>
<wgt id='rwgt_295'> +2.1342644e+00 </wgt>
<wgt id='rwgt_296'> +2.1342644e+00 </wgt>
<wgt id='rwgt_297'> +4.0902537e+01 </wgt>
<wgt id='rwgt_298'> +3.6795153e+01 </wgt>
<wgt id='rwgt_299'> +6.2849173e+00 </wgt>
<wgt id='rwgt_300'> +1.6778883e+00 </wgt>
<wgt id='rwgt_301'> +5.9830298e+01 </wgt>
<wgt id='rwgt_302'> +4.9157891e+00 </wgt>
<wgt id='rwgt_303'> +1.4129847e+01 </wgt>
<wgt id='rwgt_304'> +2.2474421e+01 </wgt>
<wgt id='rwgt_305'> +4.9157891e+00 </wgt>
<wgt id='rwgt_306'> +1.4129847e+01 </wgt>
<wgt id='rwgt_307'> +4.0902537e+01 </wgt>
<wgt id='rwgt_308'> +3.6795153e+01 </wgt>
<wgt id='rwgt_309'> +1.6778883e+00 </wgt>
<wgt id='rwgt_310'> +6.2849173e+00 </wgt>
<wgt id='rwgt_311'> +5.9830298e+01 </wgt>
<wgt id='rwgt_312'> +5.4810161e+01 </wgt>
<wgt id='rwgt_313'> +2.1342644e+00 </wgt>
<wgt id='rwgt_314'> +2.1342644e+00 </wgt>
<wgt id='rwgt_315'> +8.2452335e+01 </wgt>
<wgt id='rwgt_316'> +1.1847967e+01 </wgt>
<wgt id='rwgt_317'> +2.5669054e+01 </wgt>
<wgt id='rwgt_318'> +1.6778883e+00 </wgt>
<wgt id='rwgt_319'> +6.2849173e+00 </wgt>
<wgt id='rwgt_320'> +4.9157891e+00 </wgt>
<wgt id='rwgt_321'> +1.4129847e+01 </wgt>
<wgt id='rwgt_322'> +1.1847967e+01 </wgt>
<wgt id='rwgt_323'> +2.5669054e+01 </wgt>
<wgt id='rwgt_324'> +2.1342644e+00 </wgt>
<wgt id='rwgt_325'> +7.3885537e+00 </wgt>
<wgt id='rwgt_326'> +0.0000000e+00 </wgt>
<wgt id='rwgt_327'> +0.0000000e+00 </wgt>
<wgt id='rwgt_328'> +7.3885537e+00 </wgt>
<wgt id='rwgt_329'> +1.6624246e+01 </wgt>
<wgt id='rwgt_330'> +1.8471384e+00 </wgt>
<wgt id='rwgt_331'> +1.8471384e+00 </wgt>
<wgt id='rwgt_332'> +1.6624246e+01 </wgt>
<wgt id='rwgt_333'> +2.9554215e+01 </wgt>
<wgt id='rwgt_334'> +7.3885537e+00 </wgt>
<wgt id='rwgt_335'> +7.3885537e+00 </wgt>
<wgt id='rwgt_336'> +2.9554215e+01 </wgt>
<wgt id='rwgt_337'> +1.8471384e+00 </wgt>
<wgt id='rwgt_338'> +1.8471384e+00 </wgt>
<wgt id='rwgt_339'> +1.6624246e+01 </wgt>
<wgt id='rwgt_340'> +1.8471384e+00 </wgt>
<wgt id='rwgt_341'> +1.8471384e+00 </wgt>
<wgt id='rwgt_342'> +1.6624246e+01 </wgt>
<wgt id='rwgt_343'> +2.9554215e+01 </wgt>
<wgt id='rwgt_344'> +0.0000000e+00 </wgt>
<wgt id='rwgt_345'> +0.0000000e+00 </wgt>
<wgt id='rwgt_346'> +2.9554215e+01 </wgt>
<wgt id='rwgt_347'> +4.6178461e+01 </wgt>
<wgt id='rwgt_348'> +1.8471384e+00 </wgt>
<wgt id='rwgt_349'> +1.8471384e+00 </wgt>
<wgt id='rwgt_350'> +4.6178461e+01 </wgt>
<wgt id='rwgt_351'> +7.3885537e+00 </wgt>
<wgt id='rwgt_352'> +7.3885537e+00 </wgt>
<wgt id='rwgt_353'> +2.9554215e+01 </wgt>
<wgt id='rwgt_354'> +7.3885537e+00 </wgt>
<wgt id='rwgt_355'> +7.3885537e+00 </wgt>
<wgt id='rwgt_356'> +2.9554215e+01 </wgt>
<wgt id='rwgt_357'> +4.6178461e+01 </wgt>
<wgt id='rwgt_358'> +1.8471384e+00 </wgt>
<wgt id='rwgt_359'> +1.8471384e+00 </wgt>
<wgt id='rwgt_360'> +4.6178461e+01 </wgt>
<wgt id='rwgt_361'> +6.6496984e+01 </wgt>
<wgt id='rwgt_362'> +0.0000000e+00 </wgt>
<wgt id='rwgt_363'> +0.0000000e+00 </wgt>
<wgt id='rwgt_364'> +6.6496984e+01 </wgt>
<wgt id='rwgt_365'> +1.6624246e+01 </wgt>
<wgt id='rwgt_366'> +1.6624246e+01 </wgt>
<wgt id='rwgt_367'> +1.8471384e+00 </wgt>
<wgt id='rwgt_368'> +1.8471384e+00 </wgt>
<wgt id='rwgt_369'> +7.3885537e+00 </wgt>
<wgt id='rwgt_370'> +7.3885537e+00 </wgt>
<wgt id='rwgt_371'> +1.6624246e+01 </wgt>
<wgt id='rwgt_372'> +1.6624246e+01 </wgt>
<wgt id='rwgt_373'> +0.0000000e+00 </wgt>
</rwgt>
</event>
<event npLO=" -1 " npNLO=" 1 ">
 7      1 -9.9972252e+01 3.10988130e+01 7.54677110e-03 1.40707420e-01
       -3 -1    0    0    0  501 +0.0000000000e+00 +0.0000000000e+00 +1.3465827000e+02 1.3465827000e+02 0.0000000000e+00 0.0000e+00 9.0000e+00
        4 -1    0    0  502    0 +0.0000000000e+00 +0.0000000000e+00 -1.1368963000e+02 1.1368963000e+02 0.0000000000e+00 0.0000e+00 9.0000e+00
       24  2    1    2    0    0 +5.3756423000e+01 +6.5089215000e+01 -5.2581058000e+01 1.2785126000e+02 8.0341887000e+01 0.0000e+00 0.0000e+00
      -15  1    3    3    0    0 +3.4025923000e+01 +1.2001400000e+01 -6.0722842000e+01 7.0633282000e+01 0.0000000000e+00 0.0000e+00 9.0000e+00
       16  1    3    3    0    0 +1.9730500000e+01 +5.3087815000e+01 +8.1417836000e+00 5.7217981000e+01 0.0000000000e+00 0.0000e+00 9.0000e+00
       22  1    1    2    0    0 -3.5442032000e+01 -3.9955190000e+01 +7.1614718000e+01 8.9337689000e+01 0.0000000000e+00 0.0000e+00 9.0000e+00
       21  1    1    2  502  501 -1.8314391000e+01 -2.5134025000e+01 +1.9349848000e+00 3.1158952000e+01 0.0000000000e+00 0.0000e+00 9.0000e+00
#aMCatNLO 1  0  0  6  2 0.53516251E+01 0.00000000E+00 -9  7  0 0.00000000E+00 0.00000000E+00 0.00000000E+00 0.00000000E+00 0.00000000E+00
<rwgt>
<wgt id='1001'> -9.9973000e+01 </wgt>
<wgt id='1002'> -6.0634000e+01 </wgt>
<wgt id='1003'> -1.6135000e+02 </wgt>
<wgt id='1004'> -1.1041000e+02 </wgt>
<wgt id='1005'> -6.7141000e+01 </wgt>
<wgt id='1006'> -1.7789000e+02 </wgt>
<wgt id='1007'> -8.8061000e+01 </wgt>
<wgt id='1008'> -5.3264000e+01 </wgt>
<wgt id='1009'> -1.4236000e+02 </wgt>
<wgt id='1010'> -9.9973000e+01 </wgt>
<wgt id='1011'> -8.6791000e+01 </wgt>
<wgt id='1012'> -9.9161000e+01 </wgt>
<wgt id='1013'> -9.6833000e+01 </wgt>
<wgt id='1014'> -9.5841000e+01 </wgt>
<wgt id='1015'> -8.3256000e+01 </wgt>
<wgt id='1016'> -1.0852000e+02 </wgt>
<wgt id='1017'> -9.6164000e+01 </wgt>
<wgt id='1018'> -1.0342000e+02 </wgt>
<wgt id='1019'> -1.0355000e+02 </wgt>
<wgt id='1020'> -1.0703000e+02 </wgt>
<wgt id='1021'> -9.1884000e+01 </wgt>
<wgt id='1022'> -9.9969000e+01 </wgt>
<wgt id='1023'> -1.0232000e+02 </wgt>
<wgt id='1024'> -9.4193000e+01 </wgt>
<wgt id='1025'> -1.0969000e+02 </wgt>
<wgt id='1026'> -1.0134000e+02 </wgt>
<wgt id='1027'> -1.0237000e+02 </wgt>
<wgt id='1028'> -1.0903000e+02 </wgt>
<wgt id='1029'> -9.7282000e+01 </wgt>
<wgt id='1030'> -9.5062000e+01 </wgt>
<wgt id='1031'> -9.4859000e+01 </wgt>
<wgt id='1032'> -9.6884000e+01 </wgt>
<wgt id='1033'> -1.0684000e+02 </wgt>
<wgt id='1034'> -9.0520000e+01 </wgt>
<wgt id='1035'> -9.6138000e+01 </wgt>
<wgt id='1036'> -1.0965000e+02 </wgt>
<wgt id='1037'> -9.9484000e+01 </wgt>
<wgt id='1038'> -9.1710000e+01 </wgt>
<wgt id='1039'> -9.8137000e+01 </wgt>
<wgt id='1040'> -1.0009000e+02 </wgt>
<wgt id='1041'> -9.9598000e+01 </wgt>
<wgt id='1042'> -1.1006000e+02 </wgt>
<wgt id='1043'> -9.8355000e+01 </wgt>
<wgt id='1044'> -1.0589000e+02 </wgt>
<wgt id='1045'> -1.0095000e+02 </wgt>
<wgt id='1046'> -9.9053000e+01 </wgt>
<wgt id='1047'> -1.0212000e+02 </wgt>
<wgt id='1048'> -9.7721000e+01 </wgt>
<wgt id='1049'> -9.5149000e+01 </wgt>
<wgt id='1050'> -9.7721000e+01 </wgt>
<wgt id='1051'> -9.7270000e+01 </wgt>
<wgt id='1052'> -1.0123000e+02 </wgt>
<wgt id='1053'> -1.0009000e+02 </wgt>
<wgt id='1054'> -1.0602000e+02 </wgt>
<wgt id='1055'> -1.0401000e+02 </wgt>
<wgt id='1056'> -1.0347000e+02 </wgt>
<wgt id='1057'> -1.0718000e+02 </wgt>
<wgt id='1058'> -1.0167000e+02 </wgt>
<wgt id='1059'> -9.9328000e+01 </wgt>
<wgt id='1060'> -9.7597000e+01 </wgt>
<wgt id='1061'> -9.0022000e+01 </wgt>
<wgt id='1062'> -1.0090000e+02 </wgt>
<wgt id='1063'> -1.1369000e+02 </wgt>
<wgt id='1064'> -1.0407000e+02 </wgt>
<wgt id='1065'> -9.9954000e+01 </wgt>
<wgt id='1066'> -1.0075000e+02 </wgt>
<wgt id='1067'> -1.0427000e+02 </wgt>
<wgt id='1068'> -9.4933000e+01 </wgt>
<wgt id='1069'> -1.0043000e+02 </wgt>
<wgt id='1070'> -1.0041000e+02 </wgt>
<wgt id='1071'> -1.0545000e+02 </wgt>
<wgt id='1072'> -9.6734000e+01 </wgt>
<wgt id='1073'> -1.0041000e+02 </wgt>
<wgt id='1074'> -1.0426000e+02 </wgt>
<wgt id='1075'> -1.0081000e+02 </wgt>
<wgt id='1076'> -1.0299000e+02 </wgt>
<wgt id='1077'> -1.0955000e+02 </wgt>
<wgt id='1078'> -1.0142000e+02 </wgt>
<wgt id='1079'> -9.3732000e+01 </wgt>
<wgt id='1080'> -9.8065000e+01 </wgt>
<wgt id='1081'> -1.0630000e+02 </wgt>
<wgt id='1082'> -1.0776000e+02 </wgt>
<wgt id='1083'> -8.8965000e+01 </wgt>
<wgt id='1084'> -1.0091000e+02 </wgt>
<wgt id='1085'> -9.4957000e+01 </wgt>
<wgt id='1086'> -9.6071000e+01 </wgt>
<wgt id='1087'> -9.9625000e+01 </wgt>
<wgt id='1088'> -1.0296000e+02 </wgt>
<wgt id='1089'> -9.8198000e+01 </wgt>
<wgt id='1090'> -9.8678000e+01 </wgt>
<wgt id='1091'> -1.0006000e+02 </wgt>
<wgt id='1092'> -9.3667000e+01 </wgt>
<wgt id='1093'> -1.0392000e+02 </wgt>
<wgt id='1094'> -9.7814000e+01 </wgt>
<wgt id='1095'> -9.2945000e+01 </wgt>
<wgt id='1096'> -9.7036000e+01 </wgt>
<wgt id='1097'> -9.3943000e+01 </wgt>
<wgt id='1098'> -9.5429000e+01 </wgt>
<wgt id='1099'> -9.9551000e+01 </wgt>
<wgt id='1100'> -9.2181000e+01 </wgt>
<wgt id='1101'> -9.7274000e+01 </wgt>
<wgt id='1102'> -1.0456000e+02 </wgt>
<wgt id='1103'> -1.0225000e+02 </wgt>
<wgt id='1104'> -9.9570000e+01 </wgt>
<wgt id='1105'> -1.0558000e+02 </wgt>
<wgt id='1106'> -1.0575000e+02 </wgt>
<wgt id='1107'> -9.6915000e+01 </wgt>
<wgt id='1108'> -1.0678000e+02 </wgt>
<wgt id='1109'> -1.0139000e+02 </wgt>
<wgt id='1110'> -1.0235000e+02 </wgt>
<wgt id='1111'> -9.5558000e+01 </wgt>
<wgt id='1112'> -1.0477000e+02 </wgt>
<wgt id='rwgt_1'> -2.2663715e-02 </wgt>
<wgt id='rwgt_2'> -2.2663715e-02 </wgt>
<wgt id='rwgt_3'> -2.0397344e-01 </wgt>
<wgt id='rwgt_4'> -2.0397344e-01 </wgt>
<wgt id='rwgt_5'> -5.6659288e-01 </wgt>
<wgt id='rwgt_6'> -5.6659288e-01 </wgt>
<wgt id='rwgt_7'> -2.1691469e+00 </wgt>
<wgt id='rwgt_8'> -2.1691469e+00 </wgt>
<wgt id='rwgt_9'> -8.6765877e+00 </wgt>
<wgt id='rwgt_10'> -8.6765877e+00 </wgt>
<wgt id='rwgt_11'> -1.9522322e+01 </wgt>
<wgt id='rwgt_12'> -1.9522322e+01 </wgt>
<wgt id='rwgt_13'> -2.1691469e+00 </wgt>
<wgt id='rwgt_14'> -2.1691469e+00 </wgt>
<wgt id='rwgt_15'> -8.6765877e+00 </wgt>
<wgt id='rwgt_16'> -8.6765877e+00 </wgt>
<wgt id='rwgt_17'> -1.9522322e+01 </wgt>
<wgt id='rwgt_18'> -1.9522322e+01 </wgt>
<wgt id='rwgt_19'> -5.8019111e-02 </wgt>
<wgt id='rwgt_20'> -5.8019111e-02 </wgt>
<wgt id='rwgt_21'> -2.3207644e-01 </wgt>
<wgt id='rwgt_22'> -2.3207644e-01 </wgt>
<wgt id='rwgt_23'> -5.2217200e-01 </wgt>
<wgt id='rwgt_24'> -5.2217200e-01 </wgt>
<wgt id='rwgt_25'> -2.1691469e+00 </wgt>
<wgt id='rwgt_26'> -2.1691469e+00 </wgt>
<wgt id='rwgt_27'> -8.6765877e+00 </wgt>
<wgt id='rwgt_28'> -8.6765877e+00 </wgt>
<wgt id='rwgt_29'> -1.9522322e+01 </wgt>
<wgt id='rwgt_30'> -1.9522322e+01 </wgt>
<wgt id='rwgt_31'> -8.5505202e+00 </wgt>
<wgt id='rwgt_32'> -2.2663715e-02 </wgt>
<wgt id='rwgt_33'> -2.2663715e-02 </wgt>
<wgt id='rwgt_34'> -8.8479827e+00 </wgt>
<wgt id='rwgt_35'> -1.9321889e+01 </wgt>
<wgt id='rwgt_36'> -2.2661763e+00 </wgt>
<wgt id='rwgt_37'> -2.1174450e+00 </wgt>
<wgt id='rwgt_38'> -1.9768083e+01 </wgt>
<wgt id='rwgt_39'> -3.4431552e+01 </wgt>
<wgt id='rwgt_40'> -8.8479827e+00 </wgt>
<wgt id='rwgt_41'> -8.5505202e+00 </wgt>
<wgt id='rwgt_42'> -3.5026477e+01 </wgt>
<wgt id='rwgt_43'> -2.1174450e+00 </wgt>
<wgt id='rwgt_44'> -2.2661763e+00 </wgt>
<wgt id='rwgt_45'> -1.9321889e+01 </wgt>
<wgt id='rwgt_46'> -2.1174450e+00 </wgt>
<wgt id='rwgt_47'> -2.2661763e+00 </wgt>
<wgt id='rwgt_48'> -1.9768083e+01 </wgt>
<wgt id='rwgt_49'> -3.4431552e+01 </wgt>
<wgt id='rwgt_50'> -2.2663715e-02 </wgt>
<wgt id='rwgt_51'> -2.2663715e-02 </wgt>
<wgt id='rwgt_52'> -3.5026477e+01 </wgt>
<wgt id='rwgt_53'> -5.3879509e+01 </wgt>
<wgt id='rwgt_54'> -2.2661763e+00 </wgt>
<wgt id='rwgt_55'> -2.1174450e+00 </wgt>
<wgt id='rwgt_56'> -5.4623165e+01 </wgt>
<wgt id='rwgt_57'> -8.5505202e+00 </wgt>
<wgt id='rwgt_58'> -8.8479827e+00 </wgt>
<wgt id='rwgt_59'> -3.4431552e+01 </wgt>
<wgt id='rwgt_60'> -8.5505202e+00 </wgt>
<wgt id='rwgt_61'> -8.8479827e+00 </wgt>
<wgt id='rwgt_62'> -3.5026477e+01 </wgt>
<wgt id='rwgt_63'> -5.3879509e+01 </wgt>
<wgt id='rwgt_64'> -2.1174450e+00 </wgt>
<wgt id='rwgt_65'> -2.2661763e+00 </wgt>
<wgt id='rwgt_66'> -5.4623165e+01 </wgt>
<wgt id='rwgt_67'> -7.7665759e+01 </wgt>
<wgt id='rwgt_68'> -2.2663715e-02 </wgt>
<wgt id='rwgt_69'> -2.2663715e-02 </wgt>
<wgt id='rwgt_70'> -7.8558147e+01 </wgt>
<wgt id='rwgt_71'> -1.9321889e+01 </wgt>
<wgt id='rwgt_72'> -1.9768083e+01 </wgt>
<wgt id='rwgt_73'> -2.1174450e+00 </wgt>
<wgt id='rwgt_74'> -2.2661763e+00 </wgt>
<wgt id='rwgt_75'> -8.5505202e+00 </wgt>
<wgt id='rwgt_76'> -8.8479827e+00 </wgt>
<wgt id='rwgt_77'> -1.9321889e+01 </wgt>
<wgt id='rwgt_78'> -1.9768083e+01 </wgt>
<wgt id='rwgt_79'> -2.2663715e-02 </wgt>
<wgt id='rwgt_80'> -8.8479827e+00 </wgt>
<wgt id='rwgt_81'> -2.2663715e-02 </wgt>
<wgt id='rwgt_82'> -2.2663715e-02 </wgt>
<wgt id='rwgt_83'> -8.5505202e+00 </wgt>
<wgt id='rwgt_84'> -1.9768083e+01 </wgt>
<wgt id='rwgt_85'> -2.1174450e+00 </wgt>
<wgt id='rwgt_86'> -2.2661763e+00 </wgt>
<wgt id='rwgt_87'> -1.9321889e+01 </wgt>
<wgt id='rwgt_88'> -3.5026477e+01 </wgt>
<wgt id='rwgt_89'> -8.5505202e+00 </wgt>
<wgt id='rwgt_90'> -8.8479827e+00 </wgt>
<wgt id='rwgt_91'> -3.4431552e+01 </wgt>
<wgt id='rwgt_92'> -2.2661763e+00 </wgt>
<wgt id='rwgt_93'> -2.1174450e+00 </wgt>
<wgt id='rwgt_94'> -1.9768083e+01 </wgt>
<wgt id='rwgt_95'> -2.2661763e+00 </wgt>
<wgt id='rwgt_96'> -2.1174450e+00 </wgt>
<wgt id='rwgt_97'> -1.9321889e+01 </wgt>
<wgt id='rwgt_98'> -3.5026477e+01 </wgt>
<wgt id='rwgt_99'> -2.2663715e-02 </wgt>
<wgt id='rwgt_100'> -2.2663715e-02 </wgt>
<wgt id='rwgt_101'> -3.4431552e+01 </wgt>
<wgt id='rwgt_102'> -5.4623165e+01 </wgt>
<wgt id='rwgt_103'> -2.1174450e+00 </wgt>
<wgt id='rwgt_104'> -2.2661763e+00 </wgt>
<wgt id='rwgt_105'> -5.3879509e+01 </wgt>
<wgt id='rwgt_106'> -8.8479827e+00 </wgt>
<wgt id='rwgt_107'> -8.5505202e+00 </wgt>
<wgt id='rwgt_108'> -3.5026477e+01 </wgt>
<wgt id='rwgt_109'> -8.8479827e+00 </wgt>
<wgt id='rwgt_110'> -8.5505202e+00 </wgt>
<wgt id='rwgt_111'> -3.4431552e+01 </wgt>
<wgt id='rwgt_112'> -5.4623165e+01 </wgt>
<wgt id='rwgt_113'> -2.2661763e+00 </wgt>
<wgt id='rwgt_114'> -2.1174450e+00 </wgt>
<wgt id='rwgt_115'> -5.3879509e+01 </wgt>
<wgt id='rwgt_116'> -7.8558147e+01 </wgt>
<wgt id='rwgt_117'> -2.2663715e-02 </wgt>
<wgt id='rwgt_118'> -2.2663715e-02 </wgt>
<wgt id='rwgt_119'> -7.7665759e+01 </wgt>
<wgt id='rwgt_120'> -1.9768083e+01 </wgt>
<wgt id='rwgt_121'> -1.9321889e+01 </wgt>
<wgt id='rwgt_122'> -2.2661763e+00 </wgt>
<wgt id='rwgt_123'> -2.1174450e+00 </wgt>
<wgt id='rwgt_124'> -8.8479827e+00 </wgt>
<wgt id='rwgt_125'> -8.5505202e+00 </wgt>
<wgt id='rwgt_126'> -1.9768083e+01 </wgt>
<wgt id='rwgt_127'> -1.9321889e+01 </wgt>
<wgt id='rwgt_128'> -2.2663715e-02 </wgt>
<wgt id='rwgt_129'> -8.4343673e+00 </wgt>
<wgt id='rwgt_130'> -2.0397344e-01 </wgt>
<wgt id='rwgt_131'> -2.0397344e-01 </wgt>
<wgt id='rwgt_132'> -9.3267550e+00 </wgt>
<wgt id='rwgt_133'> -1.9057005e+01 </wgt>
<wgt id='rwgt_134'> -2.5962173e+00 </wgt>
<wgt id='rwgt_135'> -2.1500234e+00 </wgt>
<wgt id='rwgt_136'> -2.0395587e+01 </wgt>
<wgt id='rwgt_137'> -3.4017937e+01 </wgt>
<wgt id='rwgt_138'> -9.3267550e+00 </wgt>
<wgt id='rwgt_139'> -8.4343673e+00 </wgt>
<wgt id='rwgt_140'> -3.5802712e+01 </wgt>
<wgt id='rwgt_141'> -2.1500234e+00 </wgt>
<wgt id='rwgt_142'> -2.5962173e+00 </wgt>
<wgt id='rwgt_143'> -1.9057005e+01 </wgt>
<wgt id='rwgt_144'> -2.1500234e+00 </wgt>
<wgt id='rwgt_145'> -2.5962173e+00 </wgt>
<wgt id='rwgt_146'> -2.0395587e+01 </wgt>
<wgt id='rwgt_147'> -3.4017937e+01 </wgt>
<wgt id='rwgt_148'> -2.0397344e-01 </wgt>
<wgt id='rwgt_149'> -2.0397344e-01 </wgt>
<wgt id='rwgt_150'> -3.5802712e+01 </wgt>
<wgt id='rwgt_151'> -5.3317162e+01 </wgt>
<wgt id='rwgt_152'> -2.5962173e+00 </wgt>
<wgt id='rwgt_153'> -2.1500234e+00 </wgt>
<wgt id='rwgt_154'> -5.5548131e+01 </wgt>
<wgt id='rwgt_155'> -8.4343673e+00 </wgt>
<wgt id='rwgt_156'> -9.3267550e+00 </wgt>
<wgt id='rwgt_157'> -3.4017937e+01 </wgt>
<wgt id='rwgt_158'> -8.4343673e+00 </wgt>
<wgt id='rwgt_159'> -9.3267550e+00 </wgt>
<wgt id='rwgt_160'> -3.5802712e+01 </wgt>
<wgt id='rwgt_161'> -5.3317162e+01 </wgt>
<wgt id='rwgt_162'> -2.1500234e+00 </wgt>
<wgt id='rwgt_163'> -2.5962173e+00 </wgt>
<wgt id='rwgt_164'> -5.5548131e+01 </wgt>
<wgt id='rwgt_165'> -7.6954681e+01 </wgt>
<wgt id='rwgt_166'> -2.0397344e-01 </wgt>
<wgt id='rwgt_167'> -2.0397344e-01 </wgt>
<wgt id='rwgt_168'> -7.9631845e+01 </wgt>
<wgt id='rwgt_169'> -1.9057005e+01 </wgt>
<wgt id='rwgt_170'> -2.0395587e+01 </wgt>
<wgt id='rwgt_171'> -2.1500234e+00 </wgt>
<wgt id='rwgt_172'> -2.5962173e+00 </wgt>
<wgt id='rwgt_173'> -8.4343673e+00 </wgt>
<wgt id='rwgt_174'> -9.3267550e+00 </wgt>
<wgt id='rwgt_175'> -1.9057005e+01 </wgt>
<wgt id='rwgt_176'> -2.0395587e+01 </wgt>
<wgt id='rwgt_177'> -2.0397344e-01 </wgt>
<wgt id='rwgt_178'> -9.3267550e+00 </wgt>
<wgt id='rwgt_179'> -2.0397344e-01 </wgt>
<wgt id='rwgt_180'> -2.0397344e-01 </wgt>
<wgt id='rwgt_181'> -8.4343673e+00 </wgt>
<wgt id='rwgt_182'> -2.0395587e+01 </wgt>
<wgt id='rwgt_183'> -2.1500234e+00 </wgt>
<wgt id='rwgt_184'> -2.5962173e+00 </wgt>
<wgt id='rwgt_185'> -1.9057005e+01 </wgt>
<wgt id='rwgt_186'> -3.5802712e+01 </wgt>
<wgt id='rwgt_187'> -8.4343673e+00 </wgt>
<wgt id='rwgt_188'> -9.3267550e+00 </wgt>
<wgt id='rwgt_189'> -3.4017937e+01 </wgt>
<wgt id='rwgt_190'> -2.5962173e+00 </wgt>
<wgt id='rwgt_191'> -2.1500234e+00 </wgt>
<wgt id='rwgt_192'> -2.0395587e+01 </wgt>
<wgt id='rwgt_193'> -2.5962173e+00 </wgt>
<wgt id='rwgt_194'> -2.1500234e+00 </wgt>
<wgt id='rwgt_195'> -1.9057005e+01 </wgt>
<wgt id='rwgt_196'> -3.5802712e+01 </wgt>
<wgt id='rwgt_197'> -2.0397344e-01 </wgt>
<wgt id='rwgt_198'> -2.0397344e-01 </wgt>
<wgt id='rwgt_199'> -3.4017937e+01 </wgt>
<wgt id='rwgt_200'> -5.5548131e+01 </wgt>
<wgt id='rwgt_201'> -2.1500234e+00 </wgt>
<wgt id='rwgt_202'> -2.5962173e+00 </wgt>
<wgt id='rwgt_203'> -5.3317162e+01 </wgt>
<wgt id='rwgt_204'> -9.3267550e+00 </wgt>
<wgt id='rwgt_205'> -8.4343673e+00 </wgt>
<wgt id='rwgt_206'> -3.5802712e+01 </wgt>
<wgt id='rwgt_207'> -9.3267550e+00 </wgt>
<wgt id='rwgt_208'> -8.4343673e+00 </wgt>
<wgt id='rwgt_209'> -3.4017937e+01 </wgt>
<wgt id='rwgt_210'> -5.5548131e+01 </wgt>
<wgt id='rwgt_211'> -2.5962173e+00 </wgt>
<wgt id='rwgt_212'> -2.1500234e+00 </wgt>
<wgt id='rwgt_213'> -5.3317162e+01 </wgt>
<wgt id='rwgt_214'> -7.9631845e+01 </wgt>
<wgt id='rwgt_215'> -2.0397344e-01 </wgt>
<wgt id='rwgt_216'> -2.0397344e-01 </wgt>
<wgt id='rwgt_217'> -7.6954681e+01 </wgt>
<wgt id='rwgt_218'> -2.0395587e+01 </wgt>
<wgt id='rwgt_219'> -1.9057005e+01 </wgt>
<wgt id='rwgt_220'> -2.5962173e+00 </wgt>
<wgt id='rwgt_221'> -2.1500234e+00 </wgt>
<wgt id='rwgt_222'> -9.3267550e+00 </wgt>
<wgt id='rwgt_223'> -8.4343673e+00 </wgt>
<wgt id='rwgt_224'> -2.0395587e+01 </wgt>
<wgt id='rwgt_225'> -1.9057005e+01 </wgt>
<wgt id='rwgt_226'> -2.0397344e-01 </wgt>
<wgt id='rwgt_227'> -8.4995242e+00 </wgt>
<wgt id='rwgt_228'> -5.6659288e-01 </wgt>
<wgt id='rwgt_229'> -5.6659288e-01 </wgt>
<wgt id='rwgt_230'> -9.9868370e+00 </wgt>
<wgt id='rwgt_231'> -1.8973431e+01 </wgt>
<wgt id='rwgt_232'> -3.1075680e+00 </wgt>
<wgt id='rwgt_233'> -2.3639116e+00 </wgt>
<wgt id='rwgt_234'> -2.1204400e+01 </wgt>
<wgt id='rwgt_235'> -3.3785631e+01 </wgt>
<wgt id='rwgt_236'> -9.9868370e+00 </wgt>
<wgt id='rwgt_237'> -8.4995242e+00 </wgt>
<wgt id='rwgt_238'> -3.6760257e+01 </wgt>
<wgt id='rwgt_239'> -2.3639116e+00 </wgt>
<wgt id='rwgt_240'> -3.1075680e+00 </wgt>
<wgt id='rwgt_241'> -1.8973431e+01 </wgt>
<wgt id='rwgt_242'> -2.3639116e+00 </wgt>
<wgt id='rwgt_243'> -3.1075680e+00 </wgt>
<wgt id='rwgt_244'> -2.1204400e+01 </wgt>
<wgt id='rwgt_245'> -3.3785631e+01 </wgt>
<wgt id='rwgt_246'> -5.6659288e-01 </wgt>
<wgt id='rwgt_247'> -5.6659288e-01 </wgt>
<wgt id='rwgt_248'> -3.6760257e+01 </wgt>
<wgt id='rwgt_249'> -5.2936125e+01 </wgt>
<wgt id='rwgt_250'> -3.1075680e+00 </wgt>
<wgt id='rwgt_251'> -2.3639116e+00 </wgt>
<wgt id='rwgt_252'> -5.6654407e+01 </wgt>
<wgt id='rwgt_253'> -8.4995242e+00 </wgt>
<wgt id='rwgt_254'> -9.9868370e+00 </wgt>
<wgt id='rwgt_255'> -3.3785631e+01 </wgt>
<wgt id='rwgt_256'> -8.4995242e+00 </wgt>
<wgt id='rwgt_257'> -9.9868370e+00 </wgt>
<wgt id='rwgt_258'> -3.6760257e+01 </wgt>
<wgt id='rwgt_259'> -5.2936125e+01 </wgt>
<wgt id='rwgt_260'> -2.3639116e+00 </wgt>
<wgt id='rwgt_261'> -3.1075680e+00 </wgt>
<wgt id='rwgt_262'> -5.6654407e+01 </wgt>
<wgt id='rwgt_263'> -7.6424913e+01 </wgt>
<wgt id='rwgt_264'> -5.6659288e-01 </wgt>
<wgt id='rwgt_265'> -5.6659288e-01 </wgt>
<wgt id='rwgt_266'> -8.0886852e+01 </wgt>
<wgt id='rwgt_267'> -1.8973431e+01 </wgt>
<wgt id='rwgt_268'> -2.1204400e+01 </wgt>
<wgt id='rwgt_269'> -2.3639116e+00 </wgt>
<wgt id='rwgt_270'> -3.1075680e+00 </wgt>
<wgt id='rwgt_271'> -8.4995242e+00 </wgt>
<wgt id='rwgt_272'> -9.9868370e+00 </wgt>
<wgt id='rwgt_273'> -1.8973431e+01 </wgt>
<wgt id='rwgt_274'> -2.1204400e+01 </wgt>
<wgt id='rwgt_275'> -5.6659288e-01 </wgt>
<wgt id='rwgt_276'> -9.9868370e+00 </wgt>
<wgt id='rwgt_277'> -5.6659288e-01 </wgt>
<wgt id='rwgt_278'> -5.6659288e-01 </wgt>
<wgt id='rwgt_279'> -8.4995242e+00 </wgt>
<wgt id='rwgt_280'> -2.1204400e+01 </wgt>
<wgt id='rwgt_281'> -2.3639116e+00 </wgt>
<wgt id='rwgt_282'> -3.1075680e+00 </wgt>
<wgt id='rwgt_283'> -1.8973431e+01 </wgt>
<wgt id='rwgt_284'> -3.6760257e+01 </wgt>
<wgt id='rwgt_285'> -8.4995242e+00 </wgt>
<wgt id='rwgt_286'> -9.9868370e+00 </wgt>
<wgt id='rwgt_287'> -3.3785631e+01 </wgt>
<wgt id='rwgt_288'> -3.1075680e+00 </wgt>
<wgt id='rwgt_289'> -2.3639116e+00 </wgt>
<wgt id='rwgt_290'> -2.1204400e+01 </wgt>
<wgt id='rwgt_291'> -3.1075680e+00 </wgt>
<wgt id='rwgt_292'> -2.3639116e+00 </wgt>
<wgt id='rwgt_293'> -1.8973431e+01 </wgt>
<wgt id='rwgt_294'> -3.6760257e+01 </wgt>
<wgt id='rwgt_295'> -5.6659288e-01 </wgt>
<wgt id='rwgt_296'> -5.6659288e-01 </wgt>
<wgt id='rwgt_297'> -3.3785631e+01 </wgt>
<wgt id='rwgt_298'> -5.6654407e+01 </wgt>
<wgt id='rwgt_299'> -2.3639116e+00 </wgt>
<wgt id='rwgt_300'> -3.1075680e+00 </wgt>
<wgt id='rwgt_301'> -5.2936125e+01 </wgt>
<wgt id='rwgt_302'> -9.9868370e+00 </wgt>
<wgt id='rwgt_303'> -8.4995242e+00 </wgt>
<wgt id='rwgt_304'> -3.6760257e+01 </wgt>
<wgt id='rwgt_305'> -9.9868370e+00 </wgt>
<wgt id='rwgt_306'> -8.4995242e+00 </wgt>
<wgt id='rwgt_307'> -3.3785631e+01 </wgt>
<wgt id='rwgt_308'> -5.6654407e+01 </wgt>
<wgt id='rwgt_309'> -3.1075680e+00 </wgt>
<wgt id='rwgt_310'> -2.3639116e+00 </wgt>
<wgt id='rwgt_311'> -5.2936125e+01 </wgt>
<wgt id='rwgt_312'> -8.0886852e+01 </wgt>
<wgt id='rwgt_313'> -5.6659288e-01 </wgt>
<wgt id='rwgt_314'> -5.6659288e-01 </wgt>
<wgt id='rwgt_315'> -7.6424913e+01 </wgt>
<wgt id='rwgt_316'> -2.1204400e+01 </wgt>
<wgt id='rwgt_317'> -1.8973431e+01 </wgt>
<wgt id='rwgt_318'> -3.1075680e+00 </wgt>
<wgt id='rwgt_319'> -2.3639116e+00 </wgt>
<wgt id='rwgt_320'> -9.9868370e+00 </wgt>
<wgt id='rwgt_321'> -8.4995242e+00 </wgt>
<wgt id='rwgt_322'> -2.1204400e+01 </wgt>
<wgt id='rwgt_323'> -1.8973431e+01 </wgt>
<wgt id='rwgt_324'> -5.6659288e-01 </wgt>
<wgt id='rwgt_325'> -8.6765877e+00 </wgt>
<wgt id='rwgt_326'> -0.0000000e+00 </wgt>
<wgt id='rwgt_327'> -0.0000000e+00 </wgt>
<wgt id='rwgt_328'> -8.6765877e+00 </wgt>
<wgt id='rwgt_329'> -1.9522322e+01 </wgt>
<wgt id='rwgt_330'> -2.1691469e+00 </wgt>
<wgt id='rwgt_331'> -2.1691469e+00 </wgt>
<wgt id='rwgt_332'> -1.9522322e+01 </wgt>
<wgt id='rwgt_333'> -3.4706351e+01 </wgt>
<wgt id='rwgt_334'> -8.6765877e+00 </wgt>
<wgt id='rwgt_335'> -8.6765877e+00 </wgt>
<wgt id='rwgt_336'> -3.4706351e+01 </wgt>
<wgt id='rwgt_337'> -2.1691469e+00 </wgt>
<wgt id='rwgt_338'> -2.1691469e+00 </wgt>
<wgt id='rwgt_339'> -1.9522322e+01 </wgt>
<wgt id='rwgt_340'> -2.1691469e+00 </wgt>
<wgt id='rwgt_341'> -2.1691469e+00 </wgt>
<wgt id='rwgt_342'> -1.9522322e+01 </wgt>
<wgt id='rwgt_343'> -3.4706351e+01 </wgt>
<wgt id='rwgt_344'> -0.0000000e+00 </wgt>
<wgt id='rwgt_345'> -0.0000000e+00 </wgt>
<wgt id='rwgt_346'> -3.4706351e+01 </wgt>
<wgt id='rwgt_347'> -5.4228673e+01 </wgt>
<wgt id='rwgt_348'> -2.1691469e+00 </wgt>
<wgt id='rwgt_349'> -2.1691469e+00 </wgt>
<wgt id='rwgt_350'> -5.4228673e+01 </wgt>
<wgt id='rwgt_351'> -8.6765877e+00 </wgt>
<wgt id='rwgt_352'> -8.6765877e+00 </wgt>
<wgt id='rwgt_353'> -3.4706351e+01 </wgt>
<wgt id='rwgt_354'> -8.6765877e+00 </wgt>
<wgt id='rwgt_355'> -8.6765877e+00 </wgt>
<wgt id='rwgt_356'> -3.4706351e+01 </wgt>
<wgt id='rwgt_357'> -5.4228673e+01 </wgt>
<wgt id='rwgt_358'> -2.1691469e+00 </wgt>
<wgt id='rwgt_359'> -2.1691469e+00 </wgt>
<wgt id='rwgt_360'> -5.4228673e+01 </wgt>
<wgt id='rwgt_361'> -7.8089290e+01 </wgt>
<wgt id='rwgt_362'> -0.0000000e+00 </wgt>
<wgt id='rwgt_363'> -0.0000000e+00 </wgt>
<wgt id='rwgt_364'> -7.8089290e+01 </wgt>
<wgt id='rwgt_365'> -1.9522322e+01 </wgt>
<wgt id='rwgt_366'> -1.9522322e+01 </wgt>
<wgt id='rwgt_367'> -2.1691469e+00 </wgt>
<wgt id='rwgt_368'> -2.1691469e+00 </wgt>
<wgt id='rwgt_369'> -8.6765877e+00 </wgt>
<wgt id='rwgt_370'> -8.6765877e+00 </wgt>
<wgt id='rwgt_371'> -1.9522322e+01 </wgt>
<wgt id='rwgt_372'> -1.9522322e+01 </wgt>
<wgt id='rwgt_373'> -0.0000000e+00 </wgt>
</rwgt>
</event>
<event npLO=" -1 " npNLO=" 1 ">
 7      1 +9.9972252e+01 2.01753840e+01 7.54677110e-03 1.52917230e-01
       -2 -1    0    0    0  501 +0.0000000000e+00 +0.0000000000e+00 +1.2757414000e+01 1.2757414000e+01 0.0000000000e+00 0.0000e+00 9.0000e+00
        1 -1    0    0  502    0 +0.0000000000e+00 +0.0000000000e+00 -5.7346348000e+02 5.7346348000e+02 0.0000000000e+00 0.0000e+00 9.0000e+00
      -24  2    1    2    0    0 -3.8463900000e+01 +3.0773188000e+01 -2.6083147000e+02 2.7757187000e+02 8.1158004000e+01 0.0000e+00 0.0000e+00
       11  1    3    3    0    0 -3.1720026000e+01 +5.6002455000e+01 -2.1896509000e+02 2.2822827000e+02 0.0000000000e+00 0.0000e+00 9.0000e+00
      -12  1    3    3    0    0 -6.7438735000e+00 -2.5229267000e+01 -4.1866388000e+01 4.9343593000e+01 0.0000000000e+00 0.0000e+00 9.0000e+00
       22  1    1    2    0    0 +4.4440332000e+01 -1.1503305000e+01 -1.3602721000e+02 1.4356417000e+02 0.0000000000e+00 0.0000e+00 9.0000e+00
       21  1    1    2  502  501 -5.9764325000e+00 -1.9269883000e+01 -1.6384738000e+02 1.6508486000e+02 0.0000000000e+00 0.0000e+00 9.0000e+00
#aMCatNLO 1  0  0  2  2 0.48855761E+02 0.00000000E+00 -9  7  0 0.00000000E+00 0.00000000E+00 0.00000000E+00 0.00000000E+00 0.00000000E+00
<rwgt>
<wgt id='1001'> +9.9971000e+01 </wgt>
<wgt id='1002'> +1.1121000e+02 </wgt>
<wgt id='1003'> +7.5456000e+01 </wgt>
<wgt id='1004'> +1.0535000e+02 </wgt>
<wgt id='1005'> +1.1781000e+02 </wgt>
<wgt id='1006'> +7.8454000e+01 </wgt>
<wgt id='1007'> +9.3106000e+01 </wgt>
<wgt id='1008'> +1.0305000e+02 </wgt>
<wgt id='1009'> +7.1182000e+01 </wgt>
<wgt id='1010'> +9.9971000e+01 </wgt>
<wgt id='1011'> +9.7071000e+01 </wgt>
<wgt id='1012'> +1.0062000e+02 </wgt>
<wgt id='1013'> +1.0170000e+02 </wgt>
<wgt id='1014'> +1.0436000e+02 </wgt>
<wgt id='1015'> +9.5395000e+01 </wgt>
<wgt id='1016'> +1.0105000e+02 </wgt>
<wgt id='1017'> +1.0127000e+02 </wgt>
<wgt id='1018'> +9.9660000e+01 </wgt>
<wgt id='1019'> +9.9468000e+01 </wgt>
<wgt id='1020'> +9.9157000e+01 </wgt>
<wgt id='1021'> +9.7780000e+01 </wgt>
<wgt id='1022'> +9.9295000e+01 </wgt>
<wgt id='1023'> +1.0250000e+02 </wgt>
<wgt id='1024'> +9.8813000e+01 </wgt>
<wgt id='1025'> +1.0003000e+02 </wgt>
<wgt id='1026'> +9.7179000e+01 </wgt>
<wgt id='1027'> +9.6335000e+01 </wgt>
<wgt id='1028'> +9.1900000e+01 </wgt>
<wgt id='1029'> +1.0059000e+02 </wgt>
<wgt id='1030'> +1.0187000e+02 </wgt>
<wgt id='1031'> +1.0498000e+02 </wgt>
<wgt id='1032'> +9.9714000e+01 </wgt>
<wgt id='1033'> +1.0267000e+02 </wgt>
<wgt id='1034'> +1.0170000e+02 </wgt>
<wgt id='1035'> +9.8499000e+01 </wgt>
<wgt id='1036'> +1.0108000e+02 </wgt>
<wgt id='1037'> +9.6547000e+01 </wgt>
<wgt id='1038'> +9.9016000e+01 </wgt>
<wgt id='1039'> +1.0025000e+02 </wgt>
<wgt id='1040'> +1.0032000e+02 </wgt>
<wgt id='1041'> +1.0259000e+02 </wgt>
<wgt id='1042'> +1.0011000e+02 </wgt>
<wgt id='1043'> +1.0327000e+02 </wgt>
<wgt id='1044'> +1.0083000e+02 </wgt>
<wgt id='1045'> +1.0197000e+02 </wgt>
<wgt id='1046'> +9.8379000e+01 </wgt>
<wgt id='1047'> +9.6757000e+01 </wgt>
<wgt id='1048'> +9.5668000e+01 </wgt>
<wgt id='1049'> +9.9780000e+01 </wgt>
<wgt id='1050'> +1.0098000e+02 </wgt>
<wgt id='1051'> +1.0408000e+02 </wgt>
<wgt id='1052'> +1.0128000e+02 </wgt>
<wgt id='1053'> +1.0081000e+02 </wgt>
<wgt id='1054'> +9.9510000e+01 </wgt>
<wgt id='1055'> +1.0234000e+02 </wgt>
<wgt id='1056'> +1.0018000e+02 </wgt>
<wgt id='1057'> +9.9184000e+01 </wgt>
<wgt id='1058'> +9.9387000e+01 </wgt>
<wgt id='1059'> +9.9115000e+01 </wgt>
<wgt id='1060'> +1.0229000e+02 </wgt>
<wgt id='1061'> +1.0167000e+02 </wgt>
<wgt id='1062'> +1.0104000e+02 </wgt>
<wgt id='1063'> +9.8771000e+01 </wgt>
<wgt id='1064'> +1.0217000e+02 </wgt>
<wgt id='1065'> +1.0119000e+02 </wgt>
<wgt id='1066'> +9.5614000e+01 </wgt>
<wgt id='1067'> +1.0021000e+02 </wgt>
<wgt id='1068'> +1.0184000e+02 </wgt>
<wgt id='1069'> +9.9307000e+01 </wgt>
<wgt id='1070'> +1.0185000e+02 </wgt>
<wgt id='1071'> +1.0034000e+02 </wgt>
<wgt id='1072'> +9.9423000e+01 </wgt>
<wgt id='1073'> +1.0034000e+02 </wgt>
<wgt id='1074'> +9.0242000e+01 </wgt>
<wgt id='1075'> +1.0187000e+02 </wgt>
<wgt id='1076'> +9.9576000e+01 </wgt>
<wgt id='1077'> +1.0544000e+02 </wgt>
<wgt id='1078'> +1.0092000e+02 </wgt>
<wgt id='1079'> +9.8603000e+01 </wgt>
<wgt id='1080'> +1.0046000e+02 </wgt>
<wgt id='1081'> +1.0126000e+02 </wgt>
<wgt id='1082'> +9.7341000e+01 </wgt>
<wgt id='1083'> +9.7287000e+01 </wgt>
<wgt id='1084'> +1.0250000e+02 </wgt>
<wgt id='1085'> +9.9666000e+01 </wgt>
<wgt id='1086'> +9.9920000e+01 </wgt>
<wgt id='1087'> +9.8247000e+01 </wgt>
<wgt id='1088'> +1.0143000e+02 </wgt>
<wgt id='1089'> +9.9187000e+01 </wgt>
<wgt id='1090'> +1.0085000e+02 </wgt>
<wgt id='1091'> +1.0276000e+02 </wgt>
<wgt id='1092'> +1.0345000e+02 </wgt>
<wgt id='1093'> +9.9100000e+01 </wgt>
<wgt id='1094'> +9.9759000e+01 </wgt>
<wgt id='1095'> +1.0059000e+02 </wgt>
<wgt id='1096'> +9.8140000e+01 </wgt>
<wgt id='1097'> +1.0333000e+02 </wgt>
<wgt id='1098'> +1.0154000e+02 </wgt>
<wgt id='1099'> +9.5778000e+01 </wgt>
<wgt id='1100'> +1.0064000e+02 </wgt>
<wgt id='1101'> +1.0070000e+02 </wgt>
<wgt id='1102'> +9.9875000e+01 </wgt>
<wgt id='1103'> +9.8322000e+01 </wgt>
<wgt id='1104'> +1.0156000e+02 </wgt>
<wgt id='1105'> +9.5710000e+01 </wgt>
<wgt id='1106'> +1.0008000e+02 </wgt>
<wgt id='1107'> +9.7367000e+01 </wgt>
<wgt id='1108'> +1.0292000e+02 </wgt>
<wgt id='1109'> +1.0105000e+02 </wgt>
<wgt id='1110'> +9.5823000e+01 </wgt>
<wgt id='1111'> +9.9618000e+01 </wgt>
<wgt id='1112'> +1.0071000e+02 </wgt>
<wgt id='rwgt_1'> +4.3185040e-02 </wgt>
<wgt id='rwgt_2'> +4.3185040e-02 </wgt>
<wgt id='rwgt_3'> +3.8866536e-01 </wgt>
<wgt id='rwgt_4'> +3.8866536e-01 </wgt>
<wgt id='rwgt_5'> +1.0796260e+00 </wgt>
<wgt id='rwgt_6'> +1.0796260e+00 </wgt>
<wgt id='rwgt_7'> +1.7216272e+00 </wgt>
<wgt id='rwgt_8'> +1.7216272e+00 </wgt>
<wgt id='rwgt_9'> +6.8865087e+00 </wgt>
<wgt id='rwgt_10'> +6.8865087e+00 </wgt>
<wgt id='rwgt_11'> +1.5494645e+01 </wgt>
<wgt id='rwgt_12'> +1.5494645e+01 </wgt>
<wgt id='rwgt_13'> +1.7216272e+00 </wgt>
<wgt id='rwgt_14'> +1.7216272e+00 </wgt>
<wgt id='rwgt_15'> +6.8865087e+00 </wgt>
<wgt id='rwgt_16'> +6.8865087e+00 </wgt>
<wgt id='rwgt_17'> +1.5494645e+01 </wgt>
<wgt id='rwgt_18'> +1.5494645e+01 </wgt>
<wgt id='rwgt_19'> +1.1055370e-01 </wgt>
<wgt id='rwgt_20'> +1.1055370e-01 </wgt>
<wgt id='rwgt_21'> +4.4221480e-01 </wgt>
<wgt id='rwgt_22'> +4.4221480e-01 </wgt>
<wgt id='rwgt_23'> +9.9498330e-01 </wgt>
<wgt id='rwgt_24'> +9.9498330e-01 </wgt>
<wgt id='rwgt_25'> +1.7216272e+00 </wgt>
<wgt id='rwgt_26'> +1.7216272e+00 </wgt>
<wgt id='rwgt_27'> +6.8865087e+00 </wgt>
<wgt id='rwgt_28'> +6.8865087e+00 </wgt>
<wgt id='rwgt_29'> +1.5494645e+01 </wgt>
<wgt id='rwgt_30'> +1.5494645e+01 </wgt>
<wgt id='rwgt_31'> +7.9523137e+00 </wgt>
<wgt id='rwgt_32'> +4.3185040e-02 </wgt>
<wgt id='rwgt_33'> +4.3185040e-02 </wgt>
<wgt id='rwgt_34'> +5.9070738e+00 </wgt>
<wgt id='rwgt_35'> +1.7071760e+01 </wgt>
<wgt id='rwgt_36'> +1.2535022e+00 </wgt>
<wgt id='rwgt_37'> +2.2761222e+00 </wgt>
<wgt id='rwgt_38'> +1.4003900e+01 </wgt>
<wgt id='rwgt_39'> +2.9634460e+01 </wgt>
<wgt id='rwgt_40'> +5.9070738e+00 </wgt>
<wgt id='rwgt_41'> +7.9523137e+00 </wgt>
<wgt id='rwgt_42'> +2.5543980e+01 </wgt>
<wgt id='rwgt_43'> +2.2761222e+00 </wgt>
<wgt id='rwgt_44'> +1.2535022e+00 </wgt>
<wgt id='rwgt_45'> +1.7071760e+01 </wgt>
<wgt id='rwgt_46'> +2.2761222e+00 </wgt>
<wgt id='rwgt_47'> +1.2535022e+00 </wgt>
<wgt id='rwgt_48'> +1.4003900e+01 </wgt>
<wgt id='rwgt_49'> +2.9634460e+01 </wgt>
<wgt id='rwgt_50'> +4.3185040e-02 </wgt>
<wgt id='rwgt_51'> +4.3185040e-02 </wgt>
<wgt id='rwgt_52'> +2.5543980e+01 </wgt>
<wgt id='rwgt_53'> +4.5640414e+01 </wgt>
<wgt id='rwgt_54'> +1.2535022e+00 </wgt>
<wgt id='rwgt_55'> +2.2761222e+00 </wgt>
<wgt id='rwgt_56'> +4.0527314e+01 </wgt>
<wgt id='rwgt_57'> +7.9523137e+00 </wgt>
<wgt id='rwgt_58'> +5.9070738e+00 </wgt>
<wgt id='rwgt_59'> +2.9634460e+01 </wgt>
<wgt id='rwgt_60'> +7.9523137e+00 </wgt>
<wgt id='rwgt_61'> +5.9070738e+00 </wgt>
<wgt id='rwgt_62'> +2.5543980e+01 </wgt>
<wgt id='rwgt_63'> +4.5640414e+01 </wgt>
<wgt id='rwgt_64'> +2.2761222e+00 </wgt>
<wgt id='rwgt_65'> +1.2535022e+00 </wgt>
<wgt id='rwgt_66'> +4.0527314e+01 </wgt>
<wgt id='rwgt_67'> +6.5089623e+01 </wgt>
<wgt id='rwgt_68'> +4.3185040e-02 </wgt>
<wgt id='rwgt_69'> +4.3185040e-02 </wgt>
<wgt id='rwgt_70'> +5.8953903e+01 </wgt>
<wgt id='rwgt_71'> +1.7071760e+01 </wgt>
<wgt id='rwgt_72'> +1.4003900e+01 </wgt>
<wgt id='rwgt_73'> +2.2761222e+00 </wgt>
<wgt id='rwgt_74'> +1.2535022e+00 </wgt>
<wgt id='rwgt_75'> +7.9523137e+00 </wgt>
<wgt id='rwgt_76'> +5.9070738e+00 </wgt>
<wgt id='rwgt_77'> +1.7071760e+01 </wgt>
<wgt id='rwgt_78'> +1.4003900e+01 </wgt>
<wgt id='rwgt_79'> +4.3185040e-02 </wgt>
<wgt id='rwgt_80'> +5.9070738e+00 </wgt>
<wgt id='rwgt_81'> +4.3185040e-02 </wgt>
<wgt id='rwgt_82'> +4.3185040e-02 </wgt>
<wgt id='rwgt_83'> +7.9523137e+00 </wgt>
<wgt id='rwgt_84'> +1.4003900e+01 </wgt>
<wgt id='rwgt_85'> +2.2761222e+00 </wgt>
<wgt id='rwgt_86'> +1.2535022e+00 </wgt>
<wgt id='rwgt_87'> +1.7071760e+01 </wgt>
<wgt id='rwgt_88'> +2.5543980e+01 </wgt>
<wgt id='rwgt_89'> +7.9523137e+00 </wgt>
<wgt id='rwgt_90'> +5.9070738e+00 </wgt>
<wgt id='rwgt_91'> +2.9634460e+01 </wgt>
<wgt id='rwgt_92'> +1.2535022e+00 </wgt>
<wgt id='rwgt_93'> +2.2761222e+00 </wgt>
<wgt id='rwgt_94'> +1.4003900e+01 </wgt>
<wgt id='rwgt_95'> +1.2535022e+00 </wgt>
<wgt id='rwgt_96'> +2.2761222e+00 </wgt>
<wgt id='rwgt_97'> +1.7071760e+01 </wgt>
<wgt id='rwgt_98'> +2.5543980e+01 </wgt>
<wgt id='rwgt_99'> +4.3185040e-02 </wgt>
<wgt id='rwgt_100'> +4.3185040e-02 </wgt>
<wgt id='rwgt_101'> +2.9634460e+01 </wgt>
<wgt id='rwgt_102'> +4.0527314e+01 </wgt>
<wgt id='rwgt_103'> +2.2761222e+00 </wgt>
<wgt id='rwgt_104'> +1.2535022e+00 </wgt>
<wgt id='rwgt_105'> +4.5640414e+01 </wgt>
<wgt id='rwgt_106'> +5.9070738e+00 </wgt>
<wgt id='rwgt_107'> +7.9523137e+00 </wgt>
<wgt id='rwgt_108'> +2.5543980e+01 </wgt>
<wgt id='rwgt_109'> +5.9070738e+00 </wgt>
<wgt id='rwgt_110'> +7.9523137e+00 </wgt>
<wgt id='rwgt_111'> +2.9634460e+01 </wgt>
<wgt id='rwgt_112'> +4.0527314e+01 </wgt>
<wgt id='rwgt_113'> +1.2535022e+00 </wgt>
<wgt id='rwgt_114'> +2.2761222e+00 </wgt>
<wgt id='rwgt_115'> +4.5640414e+01 </wgt>
<wgt id='rwgt_116'> +5.8953903e+01 </wgt>
<wgt id='rwgt_117'> +4.3185040e-02 </wgt>
<wgt id='rwgt_118'> +4.3185040e-02 </wgt>
<wgt id='rwgt_119'> +6.5089623e+01 </wgt>
<wgt id='rwgt_120'> +1.4003900e+01 </wgt>
<wgt id='rwgt_121'> +1.7071760e+01 </wgt>
<wgt id='rwgt_122'> +1.2535022e+00 </wgt>
<wgt id='rwgt_123'> +2.2761222e+00 </wgt>
<wgt id='rwgt_124'> +5.9070738e+00 </wgt>
<wgt id='rwgt_125'> +7.9523137e+00 </wgt>
<wgt id='rwgt_126'> +1.4003900e+01 </wgt>
<wgt id='rwgt_127'> +1.7071760e+01 </wgt>
<wgt id='rwgt_128'> +4.3185040e-02 </wgt>
<wgt id='rwgt_129'> +1.0343034e+01 </wgt>
<wgt id='rwgt_130'> +3.8866536e-01 </wgt>
<wgt id='rwgt_131'> +3.8866536e-01 </wgt>
<wgt id='rwgt_132'> +4.2073142e+00 </wgt>
<wgt id='rwgt_133'> +2.0485100e+01 </wgt>
<wgt id='rwgt_134'> +5.7636259e-01 </wgt>
<wgt id='rwgt_135'> +3.6442225e+00 </wgt>
<wgt id='rwgt_136'> +1.1281520e+01 </wgt>
<wgt id='rwgt_137'> +3.4070420e+01 </wgt>
<wgt id='rwgt_138'> +4.2073142e+00 </wgt>
<wgt id='rwgt_139'> +1.0343034e+01 </wgt>
<wgt id='rwgt_140'> +2.1798980e+01 </wgt>
<wgt id='rwgt_141'> +3.6442225e+00 </wgt>
<wgt id='rwgt_142'> +5.7636259e-01 </wgt>
<wgt id='rwgt_143'> +2.0485100e+01 </wgt>
<wgt id='rwgt_144'> +3.6442225e+00 </wgt>
<wgt id='rwgt_145'> +5.7636259e-01 </wgt>
<wgt id='rwgt_146'> +1.1281520e+01 </wgt>
<wgt id='rwgt_147'> +3.4070420e+01 </wgt>
<wgt id='rwgt_148'> +3.8866536e-01 </wgt>
<wgt id='rwgt_149'> +3.8866536e-01 </wgt>
<wgt id='rwgt_150'> +2.1798980e+01 </wgt>
<wgt id='rwgt_151'> +5.1098994e+01 </wgt>
<wgt id='rwgt_152'> +5.7636259e-01 </wgt>
<wgt id='rwgt_153'> +3.6442225e+00 </wgt>
<wgt id='rwgt_154'> +3.5759695e+01 </wgt>
<wgt id='rwgt_155'> +1.0343034e+01 </wgt>
<wgt id='rwgt_156'> +4.2073142e+00 </wgt>
<wgt id='rwgt_157'> +3.4070420e+01 </wgt>
<wgt id='rwgt_158'> +1.0343034e+01 </wgt>
<wgt id='rwgt_159'> +4.2073142e+00 </wgt>
<wgt id='rwgt_160'> +2.1798980e+01 </wgt>
<wgt id='rwgt_161'> +5.1098994e+01 </wgt>
<wgt id='rwgt_162'> +3.6442225e+00 </wgt>
<wgt id='rwgt_163'> +5.7636259e-01 </wgt>
<wgt id='rwgt_164'> +3.5759695e+01 </wgt>
<wgt id='rwgt_165'> +7.1570823e+01 </wgt>
<wgt id='rwgt_166'> +3.8866536e-01 </wgt>
<wgt id='rwgt_167'> +3.8866536e-01 </wgt>
<wgt id='rwgt_168'> +5.3163664e+01 </wgt>
<wgt id='rwgt_169'> +2.0485100e+01 </wgt>
<wgt id='rwgt_170'> +1.1281520e+01 </wgt>
<wgt id='rwgt_171'> +3.6442225e+00 </wgt>
<wgt id='rwgt_172'> +5.7636259e-01 </wgt>
<wgt id='rwgt_173'> +1.0343034e+01 </wgt>
<wgt id='rwgt_174'> +4.2073142e+00 </wgt>
<wgt id='rwgt_175'> +2.0485100e+01 </wgt>
<wgt id='rwgt_176'> +1.1281520e+01 </wgt>
<wgt id='rwgt_177'> +3.8866536e-01 </wgt>
<wgt id='rwgt_178'> +4.2073142e+00 </wgt>
<wgt id='rwgt_179'> +3.8866536e-01 </wgt>
<wgt id='rwgt_180'> +3.8866536e-01 </wgt>
<wgt id='rwgt_181'> +1.0343034e+01 </wgt>
<wgt id='rwgt_182'> +1.1281520e+01 </wgt>
<wgt id='rwgt_183'> +3.6442225e+00 </wgt>
<wgt id='rwgt_184'> +5.7636259e-01 </wgt>
<wgt id='rwgt_185'> +2.0485100e+01 </wgt>
<wgt id='rwgt_186'> +2.1798980e+01 </wgt>
<wgt id='rwgt_187'> +1.0343034e+01 </wgt>
<wgt id='rwgt_188'> +4.2073142e+00 </wgt>
<wgt id='rwgt_189'> +3.4070420e+01 </wgt>
<wgt id='rwgt_190'> +5.7636259e-01 </wgt>
<wgt id='rwgt_191'> +3.6442225e+00 </wgt>
<wgt id='rwgt_192'> +1.1281520e+01 </wgt>
<wgt id='rwgt_193'> +5.7636259e-01 </wgt>
<wgt id='rwgt_194'> +3.6442225e+00 </wgt>
<wgt id='rwgt_195'> +2.0485100e+01 </wgt>
<wgt id='rwgt_196'> +2.1798980e+01 </wgt>
<wgt id='rwgt_197'> +3.8866536e-01 </wgt>
<wgt id='rwgt_198'> +3.8866536e-01 </wgt>
<wgt id='rwgt_199'> +3.4070420e+01 </wgt>
<wgt id='rwgt_200'> +3.5759695e+01 </wgt>
<wgt id='rwgt_201'> +3.6442225e+00 </wgt>
<wgt id='rwgt_202'> +5.7636259e-01 </wgt>
<wgt id='rwgt_203'> +5.1098994e+01 </wgt>
<wgt id='rwgt_204'> +4.2073142e+00 </wgt>
<wgt id='rwgt_205'> +1.0343034e+01 </wgt>
<wgt id='rwgt_206'> +2.1798980e+01 </wgt>
<wgt id='rwgt_207'> +4.2073142e+00 </wgt>
<wgt id='rwgt_208'> +1.0343034e+01 </wgt>
<wgt id='rwgt_209'> +3.4070420e+01 </wgt>
<wgt id='rwgt_210'> +3.5759695e+01 </wgt>
<wgt id='rwgt_211'> +5.7636259e-01 </wgt>
<wgt id='rwgt_212'> +3.6442225e+00 </wgt>
<wgt id='rwgt_213'> +5.1098994e+01 </wgt>
<wgt id='rwgt_214'> +5.3163664e+01 </wgt>
<wgt id='rwgt_215'> +3.8866536e-01 </wgt>
<wgt id='rwgt_216'> +3.8866536e-01 </wgt>
<wgt id='rwgt_217'> +7.1570823e+01 </wgt>
<wgt id='rwgt_218'> +1.1281520e+01 </wgt>
<wgt id='rwgt_219'> +2.0485100e+01 </wgt>
<wgt id='rwgt_220'> +5.7636259e-01 </wgt>
<wgt id='rwgt_221'> +3.6442225e+00 </wgt>
<wgt id='rwgt_222'> +4.2073142e+00 </wgt>
<wgt id='rwgt_223'> +1.0343034e+01 </wgt>
<wgt id='rwgt_224'> +1.1281520e+01 </wgt>
<wgt id='rwgt_225'> +2.0485100e+01 </wgt>
<wgt id='rwgt_226'> +3.8866536e-01 </wgt>
<wgt id='rwgt_227'> +1.3079234e+01 </wgt>
<wgt id='rwgt_228'> +1.0796260e+00 </wgt>
<wgt id='rwgt_229'> +1.0796260e+00 </wgt>
<wgt id='rwgt_230'> +2.8530349e+00 </wgt>
<wgt id='rwgt_231'> +2.4243920e+01 </wgt>
<wgt id='rwgt_232'> +2.4470326e-01 </wgt>
<wgt id='rwgt_233'> +5.3578031e+00 </wgt>
<wgt id='rwgt_234'> +8.9046208e+00 </wgt>
<wgt id='rwgt_235'> +3.8851860e+01 </wgt>
<wgt id='rwgt_236'> +2.8530349e+00 </wgt>
<wgt id='rwgt_237'> +1.3079234e+01 </wgt>
<wgt id='rwgt_238'> +1.8399461e+01 </wgt>
<wgt id='rwgt_239'> +5.3578031e+00 </wgt>
<wgt id='rwgt_240'> +2.4470326e-01 </wgt>
<wgt id='rwgt_241'> +2.4243920e+01 </wgt>
<wgt id='rwgt_242'> +5.3578031e+00 </wgt>
<wgt id='rwgt_243'> +2.4470326e-01 </wgt>
<wgt id='rwgt_244'> +8.9046208e+00 </wgt>
<wgt id='rwgt_245'> +3.8851860e+01 </wgt>
<wgt id='rwgt_246'> +1.0796260e+00 </wgt>
<wgt id='rwgt_247'> +1.0796260e+00 </wgt>
<wgt id='rwgt_248'> +1.8399461e+01 </wgt>
<wgt id='rwgt_249'> +5.6903055e+01 </wgt>
<wgt id='rwgt_250'> +2.4470326e-01 </wgt>
<wgt id='rwgt_251'> +5.3578031e+00 </wgt>
<wgt id='rwgt_252'> +3.1337556e+01 </wgt>
<wgt id='rwgt_253'> +1.3079234e+01 </wgt>
<wgt id='rwgt_254'> +2.8530349e+00 </wgt>
<wgt id='rwgt_255'> +3.8851860e+01 </wgt>
<wgt id='rwgt_256'> +1.3079234e+01 </wgt>
<wgt id='rwgt_257'> +2.8530349e+00 </wgt>
<wgt id='rwgt_258'> +1.8399461e+01 </wgt>
<wgt id='rwgt_259'> +5.6903055e+01 </wgt>
<wgt id='rwgt_260'> +5.3578031e+00 </wgt>
<wgt id='rwgt_261'> +2.4470326e-01 </wgt>
<wgt id='rwgt_262'> +3.1337556e+01 </wgt>
<wgt id='rwgt_263'> +7.8397504e+01 </wgt>
<wgt id='rwgt_264'> +1.0796260e+00 </wgt>
<wgt id='rwgt_265'> +1.0796260e+00 </wgt>
<wgt id='rwgt_266'> +4.7718905e+01 </wgt>
<wgt id='rwgt_267'> +2.4243920e+01 </wgt>
<wgt id='rwgt_268'> +8.9046208e+00 </wgt>
<wgt id='rwgt_269'> +5.3578031e+00 </wgt>
<wgt id='rwgt_270'> +2.4470326e-01 </wgt>
<wgt id='rwgt_271'> +1.3079234e+01 </wgt>
<wgt id='rwgt_272'> +2.8530349e+00 </wgt>
<wgt id='rwgt_273'> +2.4243920e+01 </wgt>
<wgt id='rwgt_274'> +8.9046208e+00 </wgt>
<wgt id='rwgt_275'> +1.0796260e+00 </wgt>
<wgt id='rwgt_276'> +2.8530349e+00 </wgt>
<wgt id='rwgt_277'> +1.0796260e+00 </wgt>
<wgt id='rwgt_278'> +1.0796260e+00 </wgt>
<wgt id='rwgt_279'> +1.3079234e+01 </wgt>
<wgt id='rwgt_280'> +8.9046208e+00 </wgt>
<wgt id='rwgt_281'> +5.3578031e+00 </wgt>
<wgt id='rwgt_282'> +2.4470326e-01 </wgt>
<wgt id='rwgt_283'> +2.4243920e+01 </wgt>
<wgt id='rwgt_284'> +1.8399461e+01 </wgt>
<wgt id='rwgt_285'> +1.3079234e+01 </wgt>
<wgt id='rwgt_286'> +2.8530349e+00 </wgt>
<wgt id='rwgt_287'> +3.8851860e+01 </wgt>
<wgt id='rwgt_288'> +2.4470326e-01 </wgt>
<wgt id='rwgt_289'> +5.3578031e+00 </wgt>
<wgt id='rwgt_290'> +8.9046208e+00 </wgt>
<wgt id='rwgt_291'> +2.4470326e-01 </wgt>
<wgt id='rwgt_292'> +5.3578031e+00 </wgt>
<wgt id='rwgt_293'> +2.4243920e+01 </wgt>
<wgt id='rwgt_294'> +1.8399461e+01 </wgt>
<wgt id='rwgt_295'> +1.0796260e+00 </wgt>
<wgt id='rwgt_296'> +1.0796260e+00 </wgt>
<wgt id='rwgt_297'> +3.8851860e+01 </wgt>
<wgt id='rwgt_298'> +3.1337556e+01 </wgt>
<wgt id='rwgt_299'> +5.3578031e+00 </wgt>
<wgt id='rwgt_300'> +2.4470326e-01 </wgt>
<wgt id='rwgt_301'> +5.6903055e+01 </wgt>
<wgt id='rwgt_302'> +2.8530349e+00 </wgt>
<wgt id='rwgt_303'> +1.3079234e+01 </wgt>
<wgt id='rwgt_304'> +1.8399461e+01 </wgt>
<wgt id='rwgt_305'> +2.8530349e+00 </wgt>
<wgt id='rwgt_306'> +1.3079234e+01 </wgt>
<wgt id='rwgt_307'> +3.8851860e+01 </wgt>
<wgt id='rwgt_308'> +3.1337556e+01 </wgt>
<wgt id='rwgt_309'> +2.4470326e-01 </wgt>
<wgt id='rwgt_310'> +5.3578031e+00 </wgt>
<wgt id='rwgt_311'> +5.6903055e+01 </wgt>
<wgt id='rwgt_312'> +4.7718905e+01 </wgt>
<wgt id='rwgt_313'> +1.0796260e+00 </wgt>
<wgt id='rwgt_314'> +1.0796260e+00 </wgt>
<wgt id='rwgt_315'> +7.8397504e+01 </wgt>
<wgt id='rwgt_316'> +8.9046208e+00 </wgt>
<wgt id='rwgt_317'> +2.4243920e+01 </wgt>
<wgt id='rwgt_318'> +2.4470326e-01 </wgt>
<wgt id='rwgt_319'> +5.3578031e+00 </wgt>
<wgt id='rwgt_320'> +2.8530349e+00 </wgt>
<wgt id='rwgt_321'> +1.3079234e+01 </wgt>
<wgt id='rwgt_322'> +8.9046208e+00 </wgt>
<wgt id='rwgt_323'> +2.4243920e+01 </wgt>
<wgt id='rwgt_324'> +1.0796260e+00 </wgt>
<wgt id='rwgt_325'> +6.8865087e+00 </wgt>
<wgt id='rwgt_326'> +0.0000000e+00 </wgt>
<wgt id='rwgt_327'> +0.0000000e+00 </wgt>
<wgt id='rwgt_328'> +6.8865087e+00 </wgt>
<wgt id='rwgt_329'> +1.5494645e+01 </wgt>
<wgt id='rwgt_330'> +1.7216272e+00 </wgt>
<wgt id='rwgt_331'> +1.7216272e+00 </wgt>
<wgt id='rwgt_332'> +1.5494645e+01 </wgt>
<wgt id='rwgt_333'> +2.7546035e+01 </wgt>
<wgt id='rwgt_334'> +6.8865087e+00 </wgt>
<wgt id='rwgt_335'> +6.8865087e+00 </wgt>
<wgt id='rwgt_336'> +2.7546035e+01 </wgt>
<wgt id='rwgt_337'> +1.7216272e+00 </wgt>
<wgt id='rwgt_338'> +1.7216272e+00 </wgt>
<wgt id='rwgt_339'> +1.5494645e+01 </wgt>
<wgt id='rwgt_340'> +1.7216272e+00 </wgt>
<wgt id='rwgt_341'> +1.7216272e+00 </wgt>
<wgt id='rwgt_342'> +1.5494645e+01 </wgt>
<wgt id='rwgt_343'> +2.7546035e+01 </wgt>
<wgt id='rwgt_344'> +0.0000000e+00 </wgt>
<wgt id='rwgt_345'> +0.0000000e+00 </wgt>
<wgt id='rwgt_346'> +2.7546035e+01 </wgt>
<wgt id='rwgt_347'> +4.3040679e+01 </wgt>
<wgt id='rwgt_348'> +1.7216272e+00 </wgt>
<wgt id='rwgt_349'> +1.7216272e+00 </wgt>
<wgt id='rwgt_350'> +4.3040679e+01 </wgt>
<wgt id='rwgt_351'> +6.8865087e+00 </wgt>
<wgt id='rwgt_352'> +6.8865087e+00 </wgt>
<wgt id='rwgt_353'> +2.7546035e+01 </wgt>
<wgt id='rwgt_354'> +6.8865087e+00 </wgt>
<wgt id='rwgt_355'> +6.8865087e+00 </wgt>
<wgt id='rwgt_356'> +2.7546035e+01 </wgt>
<wgt id='rwgt_357'> +4.3040679e+01 </wgt>
<wgt id='rwgt_358'> +1.7216272e+00 </wgt>
<wgt id='rwgt_359'> +1.7216272e+00 </wgt>
<wgt id='rwgt_360'> +4.3040679e+01 </wgt>
<wgt id='rwgt_361'> +6.1978578e+01 </wgt>
<wgt id='rwgt_362'> +0.0000000e+00 </wgt>
<wgt id='rwgt_363'> +0.0000000e+00 </wgt>
<wgt id='rwgt_364'> +6.1978578e+01 </wgt>
<wgt id='rwgt_365'> +1.5494645e+01 </wgt>
<wgt id='rwgt_366'> +1.5494645e+01 </wgt>
<wgt id='rwgt_367'> +1.7216272e+00 </wgt>
<wgt id='rwgt_368'> +1.7216272e+00 </wgt>
<wgt id='rwgt_369'> +6.8865087e+00 </wgt>
<wgt id='rwgt_370'> +6.8865087e+00 </wgt>
<wgt id='rwgt_371'> +1.5494645e+01 </wgt>
<wgt id='rwgt_372'> +1.5494645e+01 </wgt>
<wgt id='rwgt_373'> +0.0000000e+00 </wgt>
</rwgt>
</event>
<event npLO=" -1 " npNLO=" 0 ">
 6      0 +9.9972252e+01 8.24833690e+01 7.54677110e-03 9.49435650e-02
        1 -1    0    0  501    0 +0.0000000000e+00 +0.0000000000e+00 +1.9673359000e+02 1.9673359000e+02 0.0000000000e+00 0.0000e+00 9.0000e+00
       -2 -1    0    0    0  501 +0.0000000000e+00 +0.0000000000e+00 -2.6516879000e+02 2.6516879000e+02 0.0000000000e+00 0.0000e+00 9.0000e+00
      -24  2    1    2    0    0 -6.8639009000e+01 +1.1835254000e+02 +1.3992841000e+02 2.1263539000e+02 8.3157763000e+01 0.0000e+00 0.0000e+00
       13  1    3    3    0    0 -7.9114784000e+01 +1.2459652000e+02 +1.2543798000e+02 1.9369597000e+02 0.0000000000e+00 0.0000e+00 9.0000e+00
      -14  1    3    3    0    0 +1.0475775000e+01 -6.2439827000e+00 +1.4490429000e+01 1.8939422000e+01 0.0000000000e+00 0.0000e+00 9.0000e+00
       22  1    1    2    0    0 +6.8639009000e+01 -1.1835254000e+02 -2.0836361000e+02 2.4926699000e+02 0.0000000000e+00 0.0000e+00 9.0000e+00
#aMCatNLO 1  0  0  2  1 0.54072393E+02 0.00000000E+00 -9  6  0 0.00000000E+00 0.00000000E+00 0.00000000E+00 0.00000000E+00 0.00000000E+00
<rwgt>
<wgt id='1001'> +9.9973000e+01 </wgt>
<wgt id='1002'> +9.9022000e+01 </wgt>
<wgt id='1003'> +1.0110000e+02 </wgt>
<wgt id='1004'> +1.1351000e+02 </wgt>
<wgt id='1005'> +1.1152000e+02 </wgt>
<wgt id='1006'> +1.1588000e+02 </wgt>
<wgt id='1007'> +8.7593000e+01 </wgt>
<wgt id='1008'> +8.7569000e+01 </wgt>
<wgt id='1009'> +8.7620000e+01 </wgt>
<wgt id='1010'> +9.9973000e+01 </wgt>
<wgt id='1011'> +9.1464000e+01 </wgt>
<wgt id='1012'> +9.9360000e+01 </wgt>
<wgt id='1013'> +9.6823000e+01 </wgt>
<wgt id='1014'> +1.0191000e+02 </wgt>
<wgt id='1015'> +9.5204000e+01 </wgt>
<wgt id='1016'> +9.5312000e+01 </wgt>
<wgt id='1017'> +1.0927000e+02 </wgt>
<wgt id='1018'> +9.8972000e+01 </wgt>
<wgt id='1019'> +1.0010000e+02 </wgt>
<wgt id='1020'> +1.0657000e+02 </wgt>
<wgt id='1021'> +1.0014000e+02 </wgt>
<wgt id='1022'> +9.9724000e+01 </wgt>
<wgt id='1023'> +1.0510000e+02 </wgt>
<wgt id='1024'> +1.0099000e+02 </wgt>
<wgt id='1025'> +9.9313000e+01 </wgt>
<wgt id='1026'> +9.7338000e+01 </wgt>
<wgt id='1027'> +9.8290000e+01 </wgt>
<wgt id='1028'> +9.3803000e+01 </wgt>
<wgt id='1029'> +1.0228000e+02 </wgt>
<wgt id='1030'> +1.0120000e+02 </wgt>
<wgt id='1031'> +1.0507000e+02 </wgt>
<wgt id='1032'> +1.0182000e+02 </wgt>
<wgt id='1033'> +1.0356000e+02 </wgt>
<wgt id='1034'> +1.0424000e+02 </wgt>
<wgt id='1035'> +1.0091000e+02 </wgt>
<wgt id='1036'> +1.0294000e+02 </wgt>
<wgt id='1037'> +1.0019000e+02 </wgt>
<wgt id='1038'> +1.0050000e+02 </wgt>
<wgt id='1039'> +9.9221000e+01 </wgt>
<wgt id='1040'> +1.0256000e+02 </wgt>
<wgt id='1041'> +1.0304000e+02 </wgt>
<wgt id='1042'> +1.0306000e+02 </wgt>
<wgt id='1043'> +1.0431000e+02 </wgt>
<wgt id='1044'> +9.7878000e+01 </wgt>
<wgt id='1045'> +1.0309000e+02 </wgt>
<wgt id='1046'> +9.8555000e+01 </wgt>
<wgt id='1047'> +1.0141000e+02 </wgt>
<wgt id='1048'> +1.0170000e+02 </wgt>
<wgt id='1049'> +9.2551000e+01 </wgt>
<wgt id='1050'> +1.0128000e+02 </wgt>
<wgt id='1051'> +9.7923000e+01 </wgt>
<wgt id='1052'> +1.0051000e+02 </wgt>
<wgt id='1053'> +1.0295000e+02 </wgt>
<wgt id='1054'> +9.7281000e+01 </wgt>
<wgt id='1055'> +1.0349000e+02 </wgt>
<wgt id='1056'> +9.4436000e+01 </wgt>
<wgt id='1057'> +9.7636000e+01 </wgt>
<wgt id='1058'> +1.0001000e+02 </wgt>
<wgt id='1059'> +1.0253000e+02 </wgt>
<wgt id='1060'> +1.0101000e+02 </wgt>
<wgt id='1061'> +9.9797000e+01 </wgt>
<wgt id='1062'> +1.0018000e+02 </wgt>
<wgt id='1063'> +1.0447000e+02 </wgt>
<wgt id='1064'> +1.0307000e+02 </wgt>
<wgt id='1065'> +1.0179000e+02 </wgt>
<wgt id='1066'> +9.5971000e+01 </wgt>
<wgt id='1067'> +9.2872000e+01 </wgt>
<wgt id='1068'> +9.8945000e+01 </wgt>
<wgt id='1069'> +1.0001000e+02 </wgt>
<wgt id='1070'> +1.0299000e+02 </wgt>
<wgt id='1071'> +9.8886000e+01 </wgt>
<wgt id='1072'> +9.9460000e+01 </wgt>
<wgt id='1073'> +9.8710000e+01 </wgt>
<wgt id='1074'> +9.1554000e+01 </wgt>
<wgt id='1075'> +1.0036000e+02 </wgt>
<wgt id='1076'> +1.0121000e+02 </wgt>
<wgt id='1077'> +1.0230000e+02 </wgt>
<wgt id='1078'> +1.0212000e+02 </wgt>
<wgt id='1079'> +1.0372000e+02 </wgt>
<wgt id='1080'> +1.0187000e+02 </wgt>
<wgt id='1081'> +9.9955000e+01 </wgt>
<wgt id='1082'> +9.8171000e+01 </wgt>
<wgt id='1083'> +9.2766000e+01 </wgt>
<wgt id='1084'> +9.9258000e+01 </wgt>
<wgt id='1085'> +9.9193000e+01 </wgt>
<wgt id='1086'> +9.9511000e+01 </wgt>
<wgt id='1087'> +1.0105000e+02 </wgt>
<wgt id='1088'> +9.9287000e+01 </wgt>
<wgt id='1089'> +1.0032000e+02 </wgt>
<wgt id='1090'> +1.0358000e+02 </wgt>
<wgt id='1091'> +1.0021000e+02 </wgt>
<wgt id='1092'> +1.0517000e+02 </wgt>
<wgt id='1093'> +9.4097000e+01 </wgt>
<wgt id='1094'> +9.8397000e+01 </wgt>
<wgt id='1095'> +9.9096000e+01 </wgt>
<wgt id='1096'> +9.6685000e+01 </wgt>
<wgt id='1097'> +9.8234000e+01 </wgt>
<wgt id='1098'> +9.9791000e+01 </wgt>
<wgt id='1099'> +9.6985000e+01 </wgt>
<wgt id='1100'> +1.0234000e+02 </wgt>
<wgt id='1101'> +1.0327000e+02 </wgt>
<wgt id='1102'> +1.0397000e+02 </wgt>
<wgt id='1103'> +9.8254000e+01 </wgt>
<wgt id='1104'> +9.5788000e+01 </wgt>
<wgt id='1105'> +9.2882000e+01 </wgt>
<wgt id='1106'> +1.0120000e+02 </wgt>
<wgt id='1107'> +1.0326000e+02 </wgt>
<wgt id='1108'> +1.0226000e+02 </wgt>
<wgt id='1109'> +9.9703000e+01 </wgt>
<wgt id='1110'> +9.3551000e+01 </wgt>
<wgt id='1111'> +9.9997000e+01 </wgt>
<wgt id='1112'> +1.0002000e+02 </wgt>
<wgt id='rwgt_1'> +5.3158363e-01 </wgt>
<wgt id='rwgt_2'> +5.3158363e-01 </wgt>
<wgt id='rwgt_3'> +4.7842527e+00 </wgt>
<wgt id='rwgt_4'> +4.7842527e+00 </wgt>
<wgt id='rwgt_5'> +1.3289591e+01 </wgt>
<wgt id='rwgt_6'> +1.3289591e+01 </wgt>
<wgt id='rwgt_7'> +1.3440747e+00 </wgt>
<wgt id='rwgt_8'> +1.3440747e+00 </wgt>
<wgt id='rwgt_9'> +5.3762986e+00 </wgt>
<wgt id='rwgt_10'> +5.3762986e+00 </wgt>
<wgt id='rwgt_11'> +1.2096672e+01 </wgt>
<wgt id='rwgt_12'> +1.2096672e+01 </wgt>
<wgt id='rwgt_13'> +1.3440747e+00 </wgt>
<wgt id='rwgt_14'> +1.3440747e+00 </wgt>
<wgt id='rwgt_15'> +5.3762986e+00 </wgt>
<wgt id='rwgt_16'> +5.3762986e+00 </wgt>
<wgt id='rwgt_17'> +1.2096672e+01 </wgt>
<wgt id='rwgt_18'> +1.2096672e+01 </wgt>
<wgt id='rwgt_19'> +1.3608541e+00 </wgt>
<wgt id='rwgt_20'> +1.3608541e+00 </wgt>
<wgt id='rwgt_21'> +5.4434164e+00 </wgt>
<wgt id='rwgt_22'> +5.4434164e+00 </wgt>
<wgt id='rwgt_23'> +1.2247687e+01 </wgt>
<wgt id='rwgt_24'> +1.2247687e+01 </wgt>
<wgt id='rwgt_25'> +1.3440747e+00 </wgt>
<wgt id='rwgt_26'> +1.3440747e+00 </wgt>
<wgt id='rwgt_27'> +5.3762987e+00 </wgt>
<wgt id='rwgt_28'> +5.3762987e+00 </wgt>
<wgt id='rwgt_29'> +1.2096672e+01 </wgt>
<wgt id='rwgt_30'> +1.2096672e+01 </wgt>
<wgt id='rwgt_31'> +6.5934481e+00 </wgt>
<wgt id='rwgt_32'> +5.3158363e-01 </wgt>
<wgt id='rwgt_33'> +5.3158363e-01 </wgt>
<wgt id='rwgt_34'> +5.2223164e+00 </wgt>
<wgt id='rwgt_35'> +1.3656604e+01 </wgt>
<wgt id='rwgt_36'> +1.5328754e+00 </wgt>
<wgt id='rwgt_37'> +2.2184412e+00 </wgt>
<wgt id='rwgt_38'> +1.1599907e+01 </wgt>
<wgt id='rwgt_39'> +2.3407910e+01 </wgt>
<wgt id='rwgt_40'> +5.2223164e+00 </wgt>
<wgt id='rwgt_41'> +6.5934481e+00 </wgt>
<wgt id='rwgt_42'> +2.0665647e+01 </wgt>
<wgt id='rwgt_43'> +2.2184412e+00 </wgt>
<wgt id='rwgt_44'> +1.5328754e+00 </wgt>
<wgt id='rwgt_45'> +1.3656604e+01 </wgt>
<wgt id='rwgt_46'> +2.2184412e+00 </wgt>
<wgt id='rwgt_47'> +1.5328754e+00 </wgt>
<wgt id='rwgt_48'> +1.1599907e+01 </wgt>
<wgt id='rwgt_49'> +2.3407910e+01 </wgt>
<wgt id='rwgt_50'> +5.3158363e-01 </wgt>
<wgt id='rwgt_51'> +5.3158363e-01 </wgt>
<wgt id='rwgt_52'> +2.0665647e+01 </wgt>
<wgt id='rwgt_53'> +3.5847365e+01 </wgt>
<wgt id='rwgt_54'> +1.5328754e+00 </wgt>
<wgt id='rwgt_55'> +2.2184412e+00 </wgt>
<wgt id='rwgt_56'> +3.2419536e+01 </wgt>
<wgt id='rwgt_57'> +6.5934481e+00 </wgt>
<wgt id='rwgt_58'> +5.2223164e+00 </wgt>
<wgt id='rwgt_59'> +2.3407910e+01 </wgt>
<wgt id='rwgt_60'> +6.5934481e+00 </wgt>
<wgt id='rwgt_61'> +5.2223164e+00 </wgt>
<wgt id='rwgt_62'> +2.0665647e+01 </wgt>
<wgt id='rwgt_63'> +3.5847365e+01 </wgt>
<wgt id='rwgt_64'> +2.2184412e+00 </wgt>
<wgt id='rwgt_65'> +1.5328754e+00 </wgt>
<wgt id='rwgt_66'> +3.2419536e+01 </wgt>
<wgt id='rwgt_67'> +5.0974969e+01 </wgt>
<wgt id='rwgt_68'> +5.3158363e-01 </wgt>
<wgt id='rwgt_69'> +5.3158363e-01 </wgt>
<wgt id='rwgt_70'> +4.6861574e+01 </wgt>
<wgt id='rwgt_71'> +1.3656604e+01 </wgt>
<wgt id='rwgt_72'> +1.1599907e+01 </wgt>
<wgt id='rwgt_73'> +2.2184412e+00 </wgt>
<wgt id='rwgt_74'> +1.5328754e+00 </wgt>
<wgt id='rwgt_75'> +6.5934481e+00 </wgt>
<wgt id='rwgt_76'> +5.2223164e+00 </wgt>
<wgt id='rwgt_77'> +1.3656604e+01 </wgt>
<wgt id='rwgt_78'> +1.1599907e+01 </wgt>
<wgt id='rwgt_79'> +5.3158363e-01 </wgt>
<wgt id='rwgt_80'> +5.2223164e+00 </wgt>
<wgt id='rwgt_81'> +5.3158363e-01 </wgt>
<wgt id='rwgt_82'> +5.3158363e-01 </wgt>
<wgt id='rwgt_83'> +6.5934481e+00 </wgt>
<wgt id='rwgt_84'> +1.1599907e+01 </wgt>
<wgt id='rwgt_85'> +2.2184412e+00 </wgt>
<wgt id='rwgt_86'> +1.5328754e+00 </wgt>
<wgt id='rwgt_87'> +1.3656604e+01 </wgt>
<wgt id='rwgt_88'> +2.0665647e+01 </wgt>
<wgt id='rwgt_89'> +6.5934481e+00 </wgt>
<wgt id='rwgt_90'> +5.2223164e+00 </wgt>
<wgt id='rwgt_91'> +2.3407910e+01 </wgt>
<wgt id='rwgt_92'> +1.5328754e+00 </wgt>
<wgt id='rwgt_93'> +2.2184412e+00 </wgt>
<wgt id='rwgt_94'> +1.1599907e+01 </wgt>
<wgt id='rwgt_95'> +1.5328754e+00 </wgt>
<wgt id='rwgt_96'> +2.2184412e+00 </wgt>
<wgt id='rwgt_97'> +1.3656604e+01 </wgt>
<wgt id='rwgt_98'> +2.0665647e+01 </wgt>
<wgt id='rwgt_99'> +5.3158363e-01 </wgt>
<wgt id='rwgt_100'> +5.3158363e-01 </wgt>
<wgt id='rwgt_101'> +2.3407910e+01 </wgt>
<wgt id='rwgt_102'> +3.2419536e+01 </wgt>
<wgt id='rwgt_103'> +2.2184412e+00 </wgt>
<wgt id='rwgt_104'> +1.5328754e+00 </wgt>
<wgt id='rwgt_105'> +3.5847365e+01 </wgt>
<wgt id='rwgt_106'> +5.2223164e+00 </wgt>
<wgt id='rwgt_107'> +6.5934481e+00 </wgt>
<wgt id='rwgt_108'> +2.0665647e+01 </wgt>
<wgt id='rwgt_109'> +5.2223164e+00 </wgt>
<wgt id='rwgt_110'> +6.5934481e+00 </wgt>
<wgt id='rwgt_111'> +2.3407910e+01 </wgt>
<wgt id='rwgt_112'> +3.2419536e+01 </wgt>
<wgt id='rwgt_113'> +1.5328754e+00 </wgt>
<wgt id='rwgt_114'> +2.2184412e+00 </wgt>
<wgt id='rwgt_115'> +3.5847365e+01 </wgt>
<wgt id='rwgt_116'> +4.6861574e+01 </wgt>
<wgt id='rwgt_117'> +5.3158363e-01 </wgt>
<wgt id='rwgt_118'> +5.3158363e-01 </wgt>
<wgt id='rwgt_119'> +5.0974969e+01 </wgt>
<wgt id='rwgt_120'> +1.1599907e+01 </wgt>
<wgt id='rwgt_121'> +1.3656604e+01 </wgt>
<wgt id='rwgt_122'> +1.5328754e+00 </wgt>
<wgt id='rwgt_123'> +2.2184412e+00 </wgt>
<wgt id='rwgt_124'> +5.2223164e+00 </wgt>
<wgt id='rwgt_125'> +6.5934481e+00 </wgt>
<wgt id='rwgt_126'> +1.1599907e+01 </wgt>
<wgt id='rwgt_127'> +1.3656604e+01 </wgt>
<wgt id='rwgt_128'> +5.3158363e-01 </wgt>
<wgt id='rwgt_129'> +1.2217249e+01 </wgt>
<wgt id='rwgt_130'> +4.7842527e+00 </wgt>
<wgt id='rwgt_131'> +4.7842527e+00 </wgt>
<wgt id='rwgt_132'> +8.1038538e+00 </wgt>
<wgt id='rwgt_133'> +1.9965971e+01 </wgt>
<wgt id='rwgt_134'> +5.0999786e+00 </wgt>
<wgt id='rwgt_135'> +7.1566761e+00 </wgt>
<wgt id='rwgt_136'> +1.3795878e+01 </wgt>
<wgt id='rwgt_137'> +3.0402842e+01 </wgt>
<wgt id='rwgt_138'> +8.1038538e+00 </wgt>
<wgt id='rwgt_139'> +1.2217249e+01 </wgt>
<wgt id='rwgt_140'> +2.2176052e+01 </wgt>
<wgt id='rwgt_141'> +7.1566761e+00 </wgt>
<wgt id='rwgt_142'> +5.0999786e+00 </wgt>
<wgt id='rwgt_143'> +1.9965971e+01 </wgt>
<wgt id='rwgt_144'> +7.1566761e+00 </wgt>
<wgt id='rwgt_145'> +5.0999786e+00 </wgt>
<wgt id='rwgt_146'> +1.3795878e+01 </wgt>
<wgt id='rwgt_147'> +3.0402842e+01 </wgt>
<wgt id='rwgt_148'> +4.7842527e+00 </wgt>
<wgt id='rwgt_149'> +4.7842527e+00 </wgt>
<wgt id='rwgt_150'> +2.2176052e+01 </wgt>
<wgt id='rwgt_151'> +4.3527863e+01 </wgt>
<wgt id='rwgt_152'> +5.0999786e+00 </wgt>
<wgt id='rwgt_153'> +7.1566761e+00 </wgt>
<wgt id='rwgt_154'> +3.3244375e+01 </wgt>
<wgt id='rwgt_155'> +1.2217249e+01 </wgt>
<wgt id='rwgt_156'> +8.1038538e+00 </wgt>
<wgt id='rwgt_157'> +3.0402842e+01 </wgt>
<wgt id='rwgt_158'> +1.2217249e+01 </wgt>
<wgt id='rwgt_159'> +8.1038538e+00 </wgt>
<wgt id='rwgt_160'> +2.2176052e+01 </wgt>
<wgt id='rwgt_161'> +4.3527863e+01 </wgt>
<wgt id='rwgt_162'> +7.1566761e+00 </wgt>
<wgt id='rwgt_163'> +5.0999786e+00 </wgt>
<wgt id='rwgt_164'> +3.3244375e+01 </wgt>
<wgt id='rwgt_165'> +5.9341033e+01 </wgt>
<wgt id='rwgt_166'> +4.7842527e+00 </wgt>
<wgt id='rwgt_167'> +4.7842527e+00 </wgt>
<wgt id='rwgt_168'> +4.7000848e+01 </wgt>
<wgt id='rwgt_169'> +1.9965971e+01 </wgt>
<wgt id='rwgt_170'> +1.3795878e+01 </wgt>
<wgt id='rwgt_171'> +7.1566761e+00 </wgt>
<wgt id='rwgt_172'> +5.0999786e+00 </wgt>
<wgt id='rwgt_173'> +1.2217249e+01 </wgt>
<wgt id='rwgt_174'> +8.1038538e+00 </wgt>
<wgt id='rwgt_175'> +1.9965971e+01 </wgt>
<wgt id='rwgt_176'> +1.3795878e+01 </wgt>
<wgt id='rwgt_177'> +4.7842527e+00 </wgt>
<wgt id='rwgt_178'> +8.1038538e+00 </wgt>
<wgt id='rwgt_179'> +4.7842527e+00 </wgt>
<wgt id='rwgt_180'> +4.7842527e+00 </wgt>
<wgt id='rwgt_181'> +1.2217249e+01 </wgt>
<wgt id='rwgt_182'> +1.3795878e+01 </wgt>
<wgt id='rwgt_183'> +7.1566761e+00 </wgt>
<wgt id='rwgt_184'> +5.0999786e+00 </wgt>
<wgt id='rwgt_185'> +1.9965971e+01 </wgt>
<wgt id='rwgt_186'> +2.2176052e+01 </wgt>
<wgt id='rwgt_187'> +1.2217249e+01 </wgt>
<wgt id='rwgt_188'> +8.1038538e+00 </wgt>
<wgt id='rwgt_189'> +3.0402842e+01 </wgt>
<wgt id='rwgt_190'> +5.0999786e+00 </wgt>
<wgt id='rwgt_191'> +7.1566761e+00 </wgt>
<wgt id='rwgt_192'> +1.3795878e+01 </wgt>
<wgt id='rwgt_193'> +5.0999786e+00 </wgt>
<wgt id='rwgt_194'> +7.1566761e+00 </wgt>
<wgt id='rwgt_195'> +1.9965971e+01 </wgt>
<wgt id='rwgt_196'> +2.2176052e+01 </wgt>
<wgt id='rwgt_197'> +4.7842527e+00 </wgt>
<wgt id='rwgt_198'> +4.7842527e+00 </wgt>
<wgt id='rwgt_199'> +3.0402842e+01 </wgt>
<wgt id='rwgt_200'> +3.3244375e+01 </wgt>
<wgt id='rwgt_201'> +7.1566761e+00 </wgt>
<wgt id='rwgt_202'> +5.0999786e+00 </wgt>
<wgt id='rwgt_203'> +4.3527863e+01 </wgt>
<wgt id='rwgt_204'> +8.1038538e+00 </wgt>
<wgt id='rwgt_205'> +1.2217249e+01 </wgt>
<wgt id='rwgt_206'> +2.2176052e+01 </wgt>
<wgt id='rwgt_207'> +8.1038538e+00 </wgt>
<wgt id='rwgt_208'> +1.2217249e+01 </wgt>
<wgt id='rwgt_209'> +3.0402842e+01 </wgt>
<wgt id='rwgt_210'> +3.3244375e+01 </wgt>
<wgt id='rwgt_211'> +5.0999786e+00 </wgt>
<wgt id='rwgt_212'> +7.1566761e+00 </wgt>
<wgt id='rwgt_213'> +4.3527863e+01 </wgt>
<wgt id='rwgt_214'> +4.7000848e+01 </wgt>
<wgt id='rwgt_215'> +4.7842527e+00 </wgt>
<wgt id='rwgt_216'> +4.7842527e+00 </wgt>
<wgt id='rwgt_217'> +5.9341033e+01 </wgt>
<wgt id='rwgt_218'> +1.3795878e+01 </wgt>
<wgt id='rwgt_219'> +1.9965971e+01 </wgt>
<wgt id='rwgt_220'> +5.0999786e+00 </wgt>
<wgt id='rwgt_221'> +7.1566761e+00 </wgt>
<wgt id='rwgt_222'> +8.1038538e+00 </wgt>
<wgt id='rwgt_223'> +1.2217249e+01 </wgt>
<wgt id='rwgt_224'> +1.3795878e+01 </wgt>
<wgt id='rwgt_225'> +1.9965971e+01 </wgt>
<wgt id='rwgt_226'> +4.7842527e+00 </wgt>
<wgt id='rwgt_227'> +2.2093719e+01 </wgt>
<wgt id='rwgt_228'> +1.3289591e+01 </wgt>
<wgt id='rwgt_229'> +1.3289591e+01 </wgt>
<wgt id='rwgt_230'> +1.5238060e+01 </wgt>
<wgt id='rwgt_231'> +3.0528006e+01 </wgt>
<wgt id='rwgt_232'> +1.2919751e+01 </wgt>
<wgt id='rwgt_233'> +1.6347580e+01 </wgt>
<wgt id='rwgt_234'> +2.0244519e+01 </wgt>
<wgt id='rwgt_235'> +4.1650444e+01 </wgt>
<wgt id='rwgt_236'> +1.5238060e+01 </wgt>
<wgt id='rwgt_237'> +2.2093719e+01 </wgt>
<wgt id='rwgt_238'> +2.7939127e+01 </wgt>
<wgt id='rwgt_239'> +1.6347580e+01 </wgt>
<wgt id='rwgt_240'> +1.2919751e+01 </wgt>
<wgt id='rwgt_241'> +3.0528006e+01 </wgt>
<wgt id='rwgt_242'> +1.6347580e+01 </wgt>
<wgt id='rwgt_243'> +1.2919751e+01 </wgt>
<wgt id='rwgt_244'> +2.0244519e+01 </wgt>
<wgt id='rwgt_245'> +4.1650444e+01 </wgt>
<wgt id='rwgt_246'> +1.3289591e+01 </wgt>
<wgt id='rwgt_247'> +1.3289591e+01 </wgt>
<wgt id='rwgt_248'> +2.7939127e+01 </wgt>
<wgt id='rwgt_249'> +5.5461030e+01 </wgt>
<wgt id='rwgt_250'> +1.2919751e+01 </wgt>
<wgt id='rwgt_251'> +1.6347580e+01 </wgt>
<wgt id='rwgt_252'> +3.8321884e+01 </wgt>
<wgt id='rwgt_253'> +2.2093719e+01 </wgt>
<wgt id='rwgt_254'> +1.5238060e+01 </wgt>
<wgt id='rwgt_255'> +4.1650444e+01 </wgt>
<wgt id='rwgt_256'> +2.2093719e+01 </wgt>
<wgt id='rwgt_257'> +1.5238060e+01 </wgt>
<wgt id='rwgt_258'> +2.7939127e+01 </wgt>
<wgt id='rwgt_259'> +5.5461030e+01 </wgt>
<wgt id='rwgt_260'> +1.6347580e+01 </wgt>
<wgt id='rwgt_261'> +1.2919751e+01 </wgt>
<wgt id='rwgt_262'> +3.8321884e+01 </wgt>
<wgt id='rwgt_263'> +7.1959766e+01 </wgt>
<wgt id='rwgt_264'> +1.3289591e+01 </wgt>
<wgt id='rwgt_265'> +1.3289591e+01 </wgt>
<wgt id='rwgt_266'> +5.1392791e+01 </wgt>
<wgt id='rwgt_267'> +3.0528006e+01 </wgt>
<wgt id='rwgt_268'> +2.0244519e+01 </wgt>
<wgt id='rwgt_269'> +1.6347580e+01 </wgt>
<wgt id='rwgt_270'> +1.2919751e+01 </wgt>
<wgt id='rwgt_271'> +2.2093719e+01 </wgt>
<wgt id='rwgt_272'> +1.5238060e+01 </wgt>
<wgt id='rwgt_273'> +3.0528006e+01 </wgt>
<wgt id='rwgt_274'> +2.0244519e+01 </wgt>
<wgt id='rwgt_275'> +1.3289591e+01 </wgt>
<wgt id='rwgt_276'> +1.5238060e+01 </wgt>
<wgt id='rwgt_277'> +1.3289591e+01 </wgt>
<wgt id='rwgt_278'> +1.3289591e+01 </wgt>
<wgt id='rwgt_279'> +2.2093719e+01 </wgt>
<wgt id='rwgt_280'> +2.0244519e+01 </wgt>
<wgt id='rwgt_281'> +1.6347580e+01 </wgt>
<wgt id='rwgt_282'> +1.2919751e+01 </wgt>
<wgt id='rwgt_283'> +3.0528006e+01 </wgt>
<wgt id='rwgt_284'> +2.7939127e+01 </wgt>
<wgt id='rwgt_285'> +2.2093719e+01 </wgt>
<wgt id='rwgt_286'> +1.5238060e+01 </wgt>
<wgt id='rwgt_287'> +4.1650444e+01 </wgt>
<wgt id='rwgt_288'> +1.2919751e+01 </wgt>
<wgt id='rwgt_289'> +1.6347580e+01 </wgt>
<wgt id='rwgt_290'> +2.0244519e+01 </wgt>
<wgt id='rwgt_291'> +1.2919751e+01 </wgt>
<wgt id='rwgt_292'> +1.6347580e+01 </wgt>
<wgt id='rwgt_293'> +3.0528006e+01 </wgt>
<wgt id='rwgt_294'> +2.7939127e+01 </wgt>
<wgt id='rwgt_295'> +1.3289591e+01 </wgt>
<wgt id='rwgt_296'> +1.3289591e+01 </wgt>
<wgt id='rwgt_297'> +4.1650444e+01 </wgt>
<wgt id='rwgt_298'> +3.8321884e+01 </wgt>
<wgt id='rwgt_299'> +1.6347580e+01 </wgt>
<wgt id='rwgt_300'> +1.2919751e+01 </wgt>
<wgt id='rwgt_301'> +5.5461030e+01 </wgt>
<wgt id='rwgt_302'> +1.5238060e+01 </wgt>
<wgt id='rwgt_303'> +2.2093719e+01 </wgt>
<wgt id='rwgt_304'> +2.7939127e+01 </wgt>
<wgt id='rwgt_305'> +1.5238060e+01 </wgt>
<wgt id='rwgt_306'> +2.2093719e+01 </wgt>
<wgt id='rwgt_307'> +4.1650444e+01 </wgt>
<wgt id='rwgt_308'> +3.8321884e+01 </wgt>
<wgt id='rwgt_309'> +1.2919751e+01 </wgt>
<wgt id='rwgt_310'> +1.6347580e+01 </wgt>
<wgt id='rwgt_311'> +5.5461030e+01 </wgt>
<wgt id='rwgt_312'> +5.1392791e+01 </wgt>
<wgt id='rwgt_313'> +1.3289591e+01 </wgt>
<wgt id='rwgt_314'> +1.3289591e+01 </wgt>
<wgt id='rwgt_315'> +7.1959766e+01 </wgt>
<wgt id='rwgt_316'> +2.0244519e+01 </wgt>
<wgt id='rwgt_317'> +3.0528006e+01 </wgt>
<wgt id='rwgt_318'> +1.2919751e+01 </wgt>
<wgt id='rwgt_319'> +1.6347580e+01 </wgt>
<wgt id='rwgt_320'> +1.5238060e+01 </wgt>
<wgt id='rwgt_321'> +2.2093719e+01 </wgt>
<wgt id='rwgt_322'> +2.0244519e+01 </wgt>
<wgt id='rwgt_323'> +3.0528006e+01 </wgt>
<wgt id='rwgt_324'> +1.3289591e+01 </wgt>
<wgt id='rwgt_325'> +5.3762986e+00 </wgt>
<wgt id='rwgt_326'> +0.0000000e+00 </wgt>
<wgt id='rwgt_327'> +0.0000000e+00 </wgt>
<wgt id='rwgt_328'> +5.3762986e+00 </wgt>
<wgt id='rwgt_329'> +1.2096672e+01 </wgt>
<wgt id='rwgt_330'> +1.3440747e+00 </wgt>
<wgt id='rwgt_331'> +1.3440747e+00 </wgt>
<wgt id='rwgt_332'> +1.2096672e+01 </wgt>
<wgt id='rwgt_333'> +2.1505195e+01 </wgt>
<wgt id='rwgt_334'> +5.3762986e+00 </wgt>
<wgt id='rwgt_335'> +5.3762986e+00 </wgt>
<wgt id='rwgt_336'> +2.1505195e+01 </wgt>
<wgt id='rwgt_337'> +1.3440747e+00 </wgt>
<wgt id='rwgt_338'> +1.3440747e+00 </wgt>
<wgt id='rwgt_339'> +1.2096672e+01 </wgt>
<wgt id='rwgt_340'> +1.3440747e+00 </wgt>
<wgt id='rwgt_341'> +1.3440747e+00 </wgt>
<wgt id='rwgt_342'> +1.2096672e+01 </wgt>
<wgt id='rwgt_343'> +2.1505195e+01 </wgt>
<wgt id='rwgt_344'> +0.0000000e+00 </wgt>
<wgt id='rwgt_345'> +0.0000000e+00 </wgt>
<wgt id='rwgt_346'> +2.1505195e+01 </wgt>
<wgt id='rwgt_347'> +3.3601867e+01 </wgt>
<wgt id='rwgt_348'> +1.3440747e+00 </wgt>
<wgt id='rwgt_349'> +1.3440747e+00 </wgt>
<wgt id='rwgt_350'> +3.3601867e+01 </wgt>
<wgt id='rwgt_351'> +5.3762986e+00 </wgt>
<wgt id='rwgt_352'> +5.3762986e+00 </wgt>
<wgt id='rwgt_353'> +2.1505195e+01 </wgt>
<wgt id='rwgt_354'> +5.3762986e+00 </wgt>
<wgt id='rwgt_355'> +5.3762986e+00 </wgt>
<wgt id='rwgt_356'> +2.1505195e+01 </wgt>
<wgt id='rwgt_357'> +3.3601867e+01 </wgt>
<wgt id='rwgt_358'> +1.3440747e+00 </wgt>
<wgt id='rwgt_359'> +1.3440747e+00 </wgt>
<wgt id='rwgt_360'> +3.3601867e+01 </wgt>
<wgt id='rwgt_361'> +4.8386688e+01 </wgt>
<wgt id='rwgt_362'> +0.0000000e+00 </wgt>
<wgt id='rwgt_363'> +0.0000000e+00 </wgt>
<wgt id='rwgt_364'> +4.8386688e+01 </wgt>
<wgt id='rwgt_365'> +1.2096672e+01 </wgt>
<wgt id='rwgt_366'> +1.2096672e+01 </wgt>
<wgt id='rwgt_367'> +1.3440747e+00 </wgt>
<wgt id='rwgt_368'> +1.3440747e+00 </wgt>
<wgt id='rwgt_369'> +5.3762986e+00 </wgt>
<wgt id='rwgt_370'> +5.3762986e+00 </wgt>
<wgt id='rwgt_371'> +1.2096672e+01 </wgt>
<wgt id='rwgt_372'> +1.2096672e+01 </wgt>
<wgt id='rwgt_373'> +0.0000000e+00 </wgt>
</rwgt>
</event>
<event npLO=" -1 " npNLO=" 1 ">
 7      1 -9.9972252e+01 1.06992500e+01 7.54677110e-03 1.71420860e-01
        2 -1    0    0  502    0 +0.0000000000e+00 +0.0000000000e+00 +3.7977559000e+01 3.7977559000e+01 0.0000000000e+00 0.0000e+00 9.0000e+00
       21 -1    0    0  501  502 +0.0000000000e+00 +0.0000000000e+00 -2.2636448000e+02 2.2636448000e+02 0.0000000000e+00 0.0000e+00 9.0000e+00
       24  2    1    2    0    0 -8.0429310000e+00 -7.0558643000e+00 +1.4581306000e+00 7.4195732000e+01 7.3405767000e+01 0.0000e+00 0.0000e+00
      -11  1    3    3    0    0 +2.3776193000e+01 -1.9541018000e+01 -2.8050026000e+00 3.0903507000e+01 0.0000000000e+00 0.0000e+00 9.0000e+00
       12  1    3    3    0    0 -6.0241850000e+00 +1.5858934000e+01 +2.2511879000e-01 1.6966062000e+01 0.0000000000e+00 0.0000e+00 9.0000e+00
       22  1    3    3    0    0 -2.5794939000e+01 -3.3737803000e+00 +4.0380145000e+00 2.6326162000e+01 0.0000000000e+00 0.0000e+00 9.0000e+00
        1  1    1    2  501    0 +8.0429310000e+00 +7.0558643000e+00 -1.8984505000e+02 1.9014630000e+02 0.0000000000e+00 0.0000e+00 9.0000e+00
#aMCatNLO 1  0  0  1  2 0.47628129E+01 0.00000000E+00 -9  7  0 0.00000000E+00 0.00000000E+00 0.00000000E+00 0.00000000E+00 0.00000000E+00
<rwgt>
<wgt id='1001'> -9.9973000e+01 </wgt>
<wgt id='1002'> -7.3648000e+01 </wgt>
<wgt id='1003'> -1.4338000e+02 </wgt>
<wgt id='1004'> -1.0623000e+02 </wgt>
<wgt id='1005'> -7.8272000e+01 </wgt>
<wgt id='1006'> -1.5232000e+02 </wgt>
<wgt id='1007'> -9.1510000e+01 </wgt>
<wgt id='1008'> -6.7397000e+01 </wgt>
<wgt id='1009'> -1.3129000e+02 </wgt>
<wgt id='1010'> -9.9973000e+01 </wgt>
<wgt id='1011'> -9.3431000e+01 </wgt>
<wgt id='1012'> -1.0029000e+02 </wgt>
<wgt id='1013'> -1.0089000e+02 </wgt>
<wgt id='1014'> -9.9718000e+01 </wgt>
<wgt id='1015'> -9.0354000e+01 </wgt>
<wgt id='1016'> -1.0156000e+02 </wgt>
<wgt id='1017'> -1.0100000e+02 </wgt>
<wgt id='1018'> -9.9517000e+01 </wgt>
<wgt id='1019'> -9.9971000e+01 </wgt>
<wgt id='1020'> -9.4820000e+01 </wgt>
<wgt id='1021'> -9.5940000e+01 </wgt>
<wgt id='1022'> -1.0133000e+02 </wgt>
<wgt id='1023'> -1.0386000e+02 </wgt>
<wgt id='1024'> -9.7268000e+01 </wgt>
<wgt id='1025'> -1.0051000e+02 </wgt>
<wgt id='1026'> -1.0052000e+02 </wgt>
<wgt id='1027'> -9.8763000e+01 </wgt>
<wgt id='1028'> -9.8620000e+01 </wgt>
<wgt id='1029'> -1.0266000e+02 </wgt>
<wgt id='1030'> -1.0336000e+02 </wgt>
<wgt id='1031'> -1.0136000e+02 </wgt>
<wgt id='1032'> -9.7747000e+01 </wgt>
<wgt id='1033'> -1.0622000e+02 </wgt>
<wgt id='1034'> -1.0132000e+02 </wgt>
<wgt id='1035'> -1.0149000e+02 </wgt>
<wgt id='1036'> -9.7985000e+01 </wgt>
<wgt id='1037'> -1.0027000e+02 </wgt>
<wgt id='1038'> -1.0011000e+02 </wgt>
<wgt id='1039'> -1.0053000e+02 </wgt>
<wgt id='1040'> -1.0227000e+02 </wgt>
<wgt id='1041'> -1.0086000e+02 </wgt>
<wgt id='1042'> -9.5160000e+01 </wgt>
<wgt id='1043'> -9.9967000e+01 </wgt>
<wgt id='1044'> -9.9683000e+01 </wgt>
<wgt id='1045'> -1.0248000e+02 </wgt>
<wgt id='1046'> -1.0260000e+02 </wgt>
<wgt id='1047'> -1.0165000e+02 </wgt>
<wgt id='1048'> -1.0017000e+02 </wgt>
<wgt id='1049'> -9.8851000e+01 </wgt>
<wgt id='1050'> -1.0085000e+02 </wgt>
<wgt id='1051'> -1.0191000e+02 </wgt>
<wgt id='1052'> -1.0157000e+02 </wgt>
<wgt id='1053'> -1.0069000e+02 </wgt>
<wgt id='1054'> -9.8190000e+01 </wgt>
<wgt id='1055'> -9.9212000e+01 </wgt>
<wgt id='1056'> -1.0263000e+02 </wgt>
<wgt id='1057'> -9.7910000e+01 </wgt>
<wgt id='1058'> -9.9154000e+01 </wgt>
<wgt id='1059'> -9.9223000e+01 </wgt>
<wgt id='1060'> -1.0072000e+02 </wgt>
<wgt id='1061'> -9.9162000e+01 </wgt>
<wgt id='1062'> -9.8616000e+01 </wgt>
<wgt id='1063'> -9.9246000e+01 </wgt>
<wgt id='1064'> -1.0064000e+02 </wgt>
<wgt id='1065'> -9.9827000e+01 </wgt>
<wgt id='1066'> -9.7713000e+01 </wgt>
<wgt id='1067'> -1.0282000e+02 </wgt>
<wgt id='1068'> -9.9087000e+01 </wgt>
<wgt id='1069'> -1.0224000e+02 </wgt>
<wgt id='1070'> -9.9820000e+01 </wgt>
<wgt id='1071'> -1.0048000e+02 </wgt>
<wgt id='1072'> -1.0066000e+02 </wgt>
<wgt id='1073'> -1.0195000e+02 </wgt>
<wgt id='1074'> -9.5426000e+01 </wgt>
<wgt id='1075'> -1.0162000e+02 </wgt>
<wgt id='1076'> -1.0035000e+02 </wgt>
<wgt id='1077'> -1.0258000e+02 </wgt>
<wgt id='1078'> -9.9358000e+01 </wgt>
<wgt id='1079'> -9.7506000e+01 </wgt>
<wgt id='1080'> -9.8798000e+01 </wgt>
<wgt id='1081'> -1.0068000e+02 </wgt>
<wgt id='1082'> -9.9754000e+01 </wgt>
<wgt id='1083'> -9.2221000e+01 </wgt>
<wgt id='1084'> -1.0181000e+02 </wgt>
<wgt id='1085'> -1.0104000e+02 </wgt>
<wgt id='1086'> -9.6110000e+01 </wgt>
<wgt id='1087'> -1.0007000e+02 </wgt>
<wgt id='1088'> -1.0213000e+02 </wgt>
<wgt id='1089'> -9.9170000e+01 </wgt>
<wgt id='1090'> -9.9708000e+01 </wgt>
<wgt id='1091'> -1.0059000e+02 </wgt>
<wgt id='1092'> -9.9269000e+01 </wgt>
<wgt id='1093'> -1.0209000e+02 </wgt>
<wgt id='1094'> -1.0036000e+02 </wgt>
<wgt id='1095'> -9.8702000e+01 </wgt>
<wgt id='1096'> -9.9645000e+01 </wgt>
<wgt id='1097'> -9.8928000e+01 </wgt>
<wgt id='1098'> -1.0017000e+02 </wgt>
<wgt id='1099'> -1.0292000e+02 </wgt>
<wgt id='1100'> -9.9889000e+01 </wgt>
<wgt id='1101'> -9.9772000e+01 </wgt>
<wgt id='1102'> -1.0072000e+02 </wgt>
<wgt id='1103'> -1.0008000e+02 </wgt>
<wgt id='1104'> -1.0113000e+02 </wgt>
<wgt id='1105'> -9.7736000e+01 </wgt>
<wgt id='1106'> -1.0102000e+02 </wgt>
<wgt id='1107'> -1.0017000e+02 </wgt>
<wgt id='1108'> -1.0380000e+02 </wgt>
<wgt id='1109'> -1.0260000e+02 </wgt>
<wgt id='1110'> -1.0074000e+02 </wgt>
<wgt id='1111'> -9.7722000e+01 </wgt>
<wgt id='1112'> -1.0185000e+02 </wgt>
<wgt id='rwgt_1'> -4.4675300e-03 </wgt>
<wgt id='rwgt_2'> -4.4675300e-03 </wgt>
<wgt id='rwgt_3'> -4.0207770e-02 </wgt>
<wgt id='rwgt_4'> -4.0207770e-02 </wgt>
<wgt id='rwgt_5'> -1.1168825e-01 </wgt>
<wgt id='rwgt_6'> -1.1168825e-01 </wgt>
<wgt id='rwgt_7'> -2.0715570e+00 </wgt>
<wgt id='rwgt_8'> -2.0715570e+00 </wgt>
<wgt id='rwgt_9'> -8.2862280e+00 </wgt>
<wgt id='rwgt_10'> -8.2862280e+00 </wgt>
<wgt id='rwgt_11'> -1.8644013e+01 </wgt>
<wgt id='rwgt_12'> -1.8644013e+01 </wgt>
<wgt id='rwgt_13'> -2.0715570e+00 </wgt>
<wgt id='rwgt_14'> -2.0715570e+00 </wgt>
<wgt id='rwgt_15'> -8.2862280e+00 </wgt>
<wgt id='rwgt_16'> -8.2862280e+00 </wgt>
<wgt id='rwgt_17'> -1.8644013e+01 </wgt>
<wgt id='rwgt_18'> -1.8644013e+01 </wgt>
<wgt id='rwgt_19'> -1.1436876e-02 </wgt>
<wgt id='rwgt_20'> -1.1436876e-02 </wgt>
<wgt id='rwgt_21'> -4.5747506e-02 </wgt>
<wgt id='rwgt_22'> -4.5747506e-02 </wgt>
<wgt id='rwgt_23'> -1.0293189e-01 </wgt>
<wgt id='rwgt_24'> -1.0293189e-01 </wgt>
<wgt id='rwgt_25'> -2.0715570e+00 </wgt>
<wgt id='rwgt_26'> -2.0715570e+00 </wgt>
<wgt id='rwgt_27'> -8.2862279e+00 </wgt>
<wgt id='rwgt_28'> -8.2862279e+00 </wgt>
<wgt id='rwgt_29'> -1.8644013e+01 </wgt>
<wgt id='rwgt_30'> -1.8644013e+01 </wgt>
<wgt id='rwgt_31'> -8.6250899e+00 </wgt>
<wgt id='rwgt_32'> -4.4675300e-03 </wgt>
<wgt id='rwgt_33'> -4.4675300e-03 </wgt>
<wgt id='rwgt_34'> -7.9563011e+00 </wgt>
<wgt id='rwgt_35'> -1.9150072e+01 </wgt>
<wgt id='rwgt_36'> -1.9088273e+00 </wgt>
<wgt id='rwgt_37'> -2.2432217e+00 </wgt>
<wgt id='rwgt_38'> -1.8146889e+01 </wgt>
<wgt id='rwgt_39'> -3.3818168e+01 </wgt>
<wgt id='rwgt_40'> -7.9563011e+00 </wgt>
<wgt id='rwgt_41'> -8.6250899e+00 </wgt>
<wgt id='rwgt_42'> -3.2480591e+01 </wgt>
<wgt id='rwgt_43'> -2.2432217e+00 </wgt>
<wgt id='rwgt_44'> -1.9088273e+00 </wgt>
<wgt id='rwgt_45'> -1.9150072e+01 </wgt>
<wgt id='rwgt_46'> -2.2432217e+00 </wgt>
<wgt id='rwgt_47'> -1.9088273e+00 </wgt>
<wgt id='rwgt_48'> -1.8146889e+01 </wgt>
<wgt id='rwgt_49'> -3.3818168e+01 </wgt>
<wgt id='rwgt_50'> -4.4675300e-03 </wgt>
<wgt id='rwgt_51'> -4.4675300e-03 </wgt>
<wgt id='rwgt_52'> -3.2480591e+01 </wgt>
<wgt id='rwgt_53'> -5.2629378e+01 </wgt>
<wgt id='rwgt_54'> -1.9088273e+00 </wgt>
<wgt id='rwgt_55'> -2.2432217e+00 </wgt>
<wgt id='rwgt_56'> -5.0957407e+01 </wgt>
<wgt id='rwgt_57'> -8.6250899e+00 </wgt>
<wgt id='rwgt_58'> -7.9563011e+00 </wgt>
<wgt id='rwgt_59'> -3.3818168e+01 </wgt>
<wgt id='rwgt_60'> -8.6250899e+00 </wgt>
<wgt id='rwgt_61'> -7.9563011e+00 </wgt>
<wgt id='rwgt_62'> -3.2480591e+01 </wgt>
<wgt id='rwgt_63'> -5.2629378e+01 </wgt>
<wgt id='rwgt_64'> -2.2432217e+00 </wgt>
<wgt id='rwgt_65'> -1.9088273e+00 </wgt>
<wgt id='rwgt_66'> -5.0957407e+01 </wgt>
<wgt id='rwgt_67'> -7.5583703e+01 </wgt>
<wgt id='rwgt_68'> -4.4675300e-03 </wgt>
<wgt id='rwgt_69'> -4.4675300e-03 </wgt>
<wgt id='rwgt_70'> -7.3577336e+01 </wgt>
<wgt id='rwgt_71'> -1.9150072e+01 </wgt>
<wgt id='rwgt_72'> -1.8146889e+01 </wgt>
<wgt id='rwgt_73'> -2.2432217e+00 </wgt>
<wgt id='rwgt_74'> -1.9088273e+00 </wgt>
<wgt id='rwgt_75'> -8.6250899e+00 </wgt>
<wgt id='rwgt_76'> -7.9563011e+00 </wgt>
<wgt id='rwgt_77'> -1.9150072e+01 </wgt>
<wgt id='rwgt_78'> -1.8146889e+01 </wgt>
<wgt id='rwgt_79'> -4.4675300e-03 </wgt>
<wgt id='rwgt_80'> -7.9563011e+00 </wgt>
<wgt id='rwgt_81'> -4.4675300e-03 </wgt>
<wgt id='rwgt_82'> -4.4675300e-03 </wgt>
<wgt id='rwgt_83'> -8.6250899e+00 </wgt>
<wgt id='rwgt_84'> -1.8146889e+01 </wgt>
<wgt id='rwgt_85'> -2.2432217e+00 </wgt>
<wgt id='rwgt_86'> -1.9088273e+00 </wgt>
<wgt id='rwgt_87'> -1.9150072e+01 </wgt>
<wgt id='rwgt_88'> -3.2480591e+01 </wgt>
<wgt id='rwgt_89'> -8.6250899e+00 </wgt>
<wgt id='rwgt_90'> -7.9563011e+00 </wgt>
<wgt id='rwgt_91'> -3.3818168e+01 </wgt>
<wgt id='rwgt_92'> -1.9088273e+00 </wgt>
<wgt id='rwgt_93'> -2.2432217e+00 </wgt>
<wgt id='rwgt_94'> -1.8146889e+01 </wgt>
<wgt id='rwgt_95'> -1.9088273e+00 </wgt>
<wgt id='rwgt_96'> -2.2432217e+00 </wgt>
<wgt id='rwgt_97'> -1.9150072e+01 </wgt>
<wgt id='rwgt_98'> -3.2480591e+01 </wgt>
<wgt id='rwgt_99'> -4.4675300e-03 </wgt>
<wgt id='rwgt_100'> -4.4675300e-03 </wgt>
<wgt id='rwgt_101'> -3.3818168e+01 </wgt>
<wgt id='rwgt_102'> -5.0957407e+01 </wgt>
<wgt id='rwgt_103'> -2.2432217e+00 </wgt>
<wgt id='rwgt_104'> -1.9088273e+00 </wgt>
<wgt id='rwgt_105'> -5.2629378e+01 </wgt>
<wgt id='rwgt_106'> -7.9563011e+00 </wgt>
<wgt id='rwgt_107'> -8.6250899e+00 </wgt>
<wgt id='rwgt_108'> -3.2480591e+01 </wgt>
<wgt id='rwgt_109'> -7.9563011e+00 </wgt>
<wgt id='rwgt_110'> -8.6250899e+00 </wgt>
<wgt id='rwgt_111'> -3.3818168e+01 </wgt>
<wgt id='rwgt_112'> -5.0957407e+01 </wgt>
<wgt id='rwgt_113'> -1.9088273e+00 </wgt>
<wgt id='rwgt_114'> -2.2432217e+00 </wgt>
<wgt id='rwgt_115'> -5.2629378e+01 </wgt>
<wgt id='rwgt_116'> -7.3577336e+01 </wgt>
<wgt id='rwgt_117'> -4.4675300e-03 </wgt>
<wgt id='rwgt_118'> -4.4675300e-03 </wgt>
<wgt id='rwgt_119'> -7.5583703e+01 </wgt>
<wgt id='rwgt_120'> -1.8146889e+01 </wgt>
<wgt id='rwgt_121'> -1.9150072e+01 </wgt>
<wgt id='rwgt_122'> -1.9088273e+00 </wgt>
<wgt id='rwgt_123'> -2.2432217e+00 </wgt>
<wgt id='rwgt_124'> -7.9563011e+00 </wgt>
<wgt id='rwgt_125'> -8.6250899e+00 </wgt>
<wgt id='rwgt_126'> -1.8146889e+01 </wgt>
<wgt id='rwgt_127'> -1.9150072e+01 </wgt>
<wgt id='rwgt_128'> -4.4675300e-03 </wgt>
<wgt id='rwgt_129'> -9.3296189e+00 </wgt>
<wgt id='rwgt_130'> -4.0207770e-02 </wgt>
<wgt id='rwgt_131'> -4.0207770e-02 </wgt>
<wgt id='rwgt_132'> -7.3232526e+00 </wgt>
<wgt id='rwgt_133'> -2.0188996e+01 </wgt>
<wgt id='rwgt_134'> -1.6101732e+00 </wgt>
<wgt id='rwgt_135'> -2.6133563e+00 </wgt>
<wgt id='rwgt_136'> -1.7179446e+01 </wgt>
<wgt id='rwgt_137'> -3.5191486e+01 </wgt>
<wgt id='rwgt_138'> -7.3232526e+00 </wgt>
<wgt id='rwgt_139'> -9.3296189e+00 </wgt>
<wgt id='rwgt_140'> -3.1178753e+01 </wgt>
<wgt id='rwgt_141'> -2.6133563e+00 </wgt>
<wgt id='rwgt_142'> -1.6101732e+00 </wgt>
<wgt id='rwgt_143'> -2.0188996e+01 </wgt>
<wgt id='rwgt_144'> -2.6133563e+00 </wgt>
<wgt id='rwgt_145'> -1.6101732e+00 </wgt>
<wgt id='rwgt_146'> -1.7179446e+01 </wgt>
<wgt id='rwgt_147'> -3.5191486e+01 </wgt>
<wgt id='rwgt_148'> -4.0207770e-02 </wgt>
<wgt id='rwgt_149'> -4.0207770e-02 </wgt>
<wgt id='rwgt_150'> -3.1178753e+01 </wgt>
<wgt id='rwgt_151'> -5.4337091e+01 </wgt>
<wgt id='rwgt_152'> -1.6101732e+00 </wgt>
<wgt id='rwgt_153'> -2.6133563e+00 </wgt>
<wgt id='rwgt_154'> -4.9321175e+01 </wgt>
<wgt id='rwgt_155'> -9.3296189e+00 </wgt>
<wgt id='rwgt_156'> -7.3232526e+00 </wgt>
<wgt id='rwgt_157'> -3.5191486e+01 </wgt>
<wgt id='rwgt_158'> -9.3296189e+00 </wgt>
<wgt id='rwgt_159'> -7.3232526e+00 </wgt>
<wgt id='rwgt_160'> -3.1178753e+01 </wgt>
<wgt id='rwgt_161'> -5.4337091e+01 </wgt>
<wgt id='rwgt_162'> -2.6133563e+00 </wgt>
<wgt id='rwgt_163'> -1.6101732e+00 </wgt>
<wgt id='rwgt_164'> -4.9321175e+01 </wgt>
<wgt id='rwgt_165'> -7.7625809e+01 </wgt>
<wgt id='rwgt_166'> -4.0207770e-02 </wgt>
<wgt id='rwgt_167'> -4.0207770e-02 </wgt>
<wgt id='rwgt_168'> -7.1606710e+01 </wgt>
<wgt id='rwgt_169'> -2.0188996e+01 </wgt>
<wgt id='rwgt_170'> -1.7179446e+01 </wgt>
<wgt id='rwgt_171'> -2.6133563e+00 </wgt>
<wgt id='rwgt_172'> -1.6101732e+00 </wgt>
<wgt id='rwgt_173'> -9.3296189e+00 </wgt>
<wgt id='rwgt_174'> -7.3232526e+00 </wgt>
<wgt id='rwgt_175'> -2.0188996e+01 </wgt>
<wgt id='rwgt_176'> -1.7179446e+01 </wgt>
<wgt id='rwgt_177'> -4.0207770e-02 </wgt>
<wgt id='rwgt_178'> -7.3232526e+00 </wgt>
<wgt id='rwgt_179'> -4.0207770e-02 </wgt>
<wgt id='rwgt_180'> -4.0207770e-02 </wgt>
<wgt id='rwgt_181'> -9.3296189e+00 </wgt>
<wgt id='rwgt_182'> -1.7179446e+01 </wgt>
<wgt id='rwgt_183'> -2.6133563e+00 </wgt>
<wgt id='rwgt_184'> -1.6101732e+00 </wgt>
<wgt id='rwgt_185'> -2.0188996e+01 </wgt>
<wgt id='rwgt_186'> -3.1178753e+01 </wgt>
<wgt id='rwgt_187'> -9.3296189e+00 </wgt>
<wgt id='rwgt_188'> -7.3232526e+00 </wgt>
<wgt id='rwgt_189'> -3.5191486e+01 </wgt>
<wgt id='rwgt_190'> -1.6101732e+00 </wgt>
<wgt id='rwgt_191'> -2.6133563e+00 </wgt>
<wgt id='rwgt_192'> -1.7179446e+01 </wgt>
<wgt id='rwgt_193'> -1.6101732e+00 </wgt>
<wgt id='rwgt_194'> -2.6133563e+00 </wgt>
<wgt id='rwgt_195'> -2.0188996e+01 </wgt>
<wgt id='rwgt_196'> -3.1178753e+01 </wgt>
<wgt id='rwgt_197'> -4.0207770e-02 </wgt>
<wgt id='rwgt_198'> -4.0207770e-02 </wgt>
<wgt id='rwgt_199'> -3.5191486e+01 </wgt>
<wgt id='rwgt_200'> -4.9321175e+01 </wgt>
<wgt id='rwgt_201'> -2.6133563e+00 </wgt>
<wgt id='rwgt_202'> -1.6101732e+00 </wgt>
<wgt id='rwgt_203'> -5.4337091e+01 </wgt>
<wgt id='rwgt_204'> -7.3232526e+00 </wgt>
<wgt id='rwgt_205'> -9.3296189e+00 </wgt>
<wgt id='rwgt_206'> -3.1178753e+01 </wgt>
<wgt id='rwgt_207'> -7.3232526e+00 </wgt>
<wgt id='rwgt_208'> -9.3296189e+00 </wgt>
<wgt id='rwgt_209'> -3.5191486e+01 </wgt>
<wgt id='rwgt_210'> -4.9321175e+01 </wgt>
<wgt id='rwgt_211'> -1.6101732e+00 </wgt>
<wgt id='rwgt_212'> -2.6133563e+00 </wgt>
<wgt id='rwgt_213'> -5.4337091e+01 </wgt>
<wgt id='rwgt_214'> -7.1606710e+01 </wgt>
<wgt id='rwgt_215'> -4.0207770e-02 </wgt>
<wgt id='rwgt_216'> -4.0207770e-02 </wgt>
<wgt id='rwgt_217'> -7.7625809e+01 </wgt>
<wgt id='rwgt_218'> -1.7179446e+01 </wgt>
<wgt id='rwgt_219'> -2.0188996e+01 </wgt>
<wgt id='rwgt_220'> -1.6101732e+00 </wgt>
<wgt id='rwgt_221'> -2.6133563e+00 </wgt>
<wgt id='rwgt_222'> -7.3232526e+00 </wgt>
<wgt id='rwgt_223'> -9.3296189e+00 </wgt>
<wgt id='rwgt_224'> -1.7179446e+01 </wgt>
<wgt id='rwgt_225'> -2.0188996e+01 </wgt>
<wgt id='rwgt_226'> -4.0207770e-02 </wgt>
<wgt id='rwgt_227'> -1.0069888e+01 </wgt>
<wgt id='rwgt_228'> -1.1168825e-01 </wgt>
<wgt id='rwgt_229'> -1.1168825e-01 </wgt>
<wgt id='rwgt_230'> -6.7259443e+00 </wgt>
<wgt id='rwgt_231'> -2.1263659e+01 </wgt>
<wgt id='rwgt_232'> -1.3472593e+00 </wgt>
<wgt id='rwgt_233'> -3.0192312e+00 </wgt>
<wgt id='rwgt_234'> -1.6247743e+01 </wgt>
<wgt id='rwgt_235'> -3.6600544e+01 </wgt>
<wgt id='rwgt_236'> -6.7259443e+00 </wgt>
<wgt id='rwgt_237'> -1.0069888e+01 </wgt>
<wgt id='rwgt_238'> -2.9912656e+01 </wgt>
<wgt id='rwgt_239'> -3.0192312e+00 </wgt>
<wgt id='rwgt_240'> -1.3472593e+00 </wgt>
<wgt id='rwgt_241'> -2.1263659e+01 </wgt>
<wgt id='rwgt_242'> -3.0192312e+00 </wgt>
<wgt id='rwgt_243'> -1.3472593e+00 </wgt>
<wgt id='rwgt_244'> -1.6247743e+01 </wgt>
<wgt id='rwgt_245'> -3.6600544e+01 </wgt>
<wgt id='rwgt_246'> -1.1168825e-01 </wgt>
<wgt id='rwgt_247'> -1.1168825e-01 </wgt>
<wgt id='rwgt_248'> -2.9912656e+01 </wgt>
<wgt id='rwgt_249'> -5.6080543e+01 </wgt>
<wgt id='rwgt_250'> -1.3472593e+00 </wgt>
<wgt id='rwgt_251'> -3.0192312e+00 </wgt>
<wgt id='rwgt_252'> -4.7720683e+01 </wgt>
<wgt id='rwgt_253'> -1.0069888e+01 </wgt>
<wgt id='rwgt_254'> -6.7259443e+00 </wgt>
<wgt id='rwgt_255'> -3.6600544e+01 </wgt>
<wgt id='rwgt_256'> -1.0069888e+01 </wgt>
<wgt id='rwgt_257'> -6.7259443e+00 </wgt>
<wgt id='rwgt_258'> -2.9912656e+01 </wgt>
<wgt id='rwgt_259'> -5.6080543e+01 </wgt>
<wgt id='rwgt_260'> -3.0192312e+00 </wgt>
<wgt id='rwgt_261'> -1.3472593e+00 </wgt>
<wgt id='rwgt_262'> -4.7720683e+01 </wgt>
<wgt id='rwgt_263'> -7.9703656e+01 </wgt>
<wgt id='rwgt_264'> -1.1168825e-01 </wgt>
<wgt id='rwgt_265'> -1.1168825e-01 </wgt>
<wgt id='rwgt_266'> -6.9671824e+01 </wgt>
<wgt id='rwgt_267'> -2.1263659e+01 </wgt>
<wgt id='rwgt_268'> -1.6247743e+01 </wgt>
<wgt id='rwgt_269'> -3.0192312e+00 </wgt>
<wgt id='rwgt_270'> -1.3472593e+00 </wgt>
<wgt id='rwgt_271'> -1.0069888e+01 </wgt>
<wgt id='rwgt_272'> -6.7259443e+00 </wgt>
<wgt id='rwgt_273'> -2.1263659e+01 </wgt>
<wgt id='rwgt_274'> -1.6247743e+01 </wgt>
<wgt id='rwgt_275'> -1.1168825e-01 </wgt>
<wgt id='rwgt_276'> -6.7259443e+00 </wgt>
<wgt id='rwgt_277'> -1.1168825e-01 </wgt>
<wgt id='rwgt_278'> -1.1168825e-01 </wgt>
<wgt id='rwgt_279'> -1.0069888e+01 </wgt>
<wgt id='rwgt_280'> -1.6247743e+01 </wgt>
<wgt id='rwgt_281'> -3.0192312e+00 </wgt>
<wgt id='rwgt_282'> -1.3472593e+00 </wgt>
<wgt id='rwgt_283'> -2.1263659e+01 </wgt>
<wgt id='rwgt_284'> -2.9912656e+01 </wgt>
<wgt id='rwgt_285'> -1.0069888e+01 </wgt>
<wgt id='rwgt_286'> -6.7259443e+00 </wgt>
<wgt id='rwgt_287'> -3.6600544e+01 </wgt>
<wgt id='rwgt_288'> -1.3472593e+00 </wgt>
<wgt id='rwgt_289'> -3.0192312e+00 </wgt>
<wgt id='rwgt_290'> -1.6247743e+01 </wgt>
<wgt id='rwgt_291'> -1.3472593e+00 </wgt>
<wgt id='rwgt_292'> -3.0192312e+00 </wgt>
<wgt id='rwgt_293'> -2.1263659e+01 </wgt>
<wgt id='rwgt_294'> -2.9912656e+01 </wgt>
<wgt id='rwgt_295'> -1.1168825e-01 </wgt>
<wgt id='rwgt_296'> -1.1168825e-01 </wgt>
<wgt id='rwgt_297'> -3.6600544e+01 </wgt>
<wgt id='rwgt_298'> -4.7720683e+01 </wgt>
<wgt id='rwgt_299'> -3.0192312e+00 </wgt>
<wgt id='rwgt_300'> -1.3472593e+00 </wgt>
<wgt id='rwgt_301'> -5.6080543e+01 </wgt>
<wgt id='rwgt_302'> -6.7259443e+00 </wgt>
<wgt id='rwgt_303'> -1.0069888e+01 </wgt>
<wgt id='rwgt_304'> -2.9912656e+01 </wgt>
<wgt id='rwgt_305'> -6.7259443e+00 </wgt>
<wgt id='rwgt_306'> -1.0069888e+01 </wgt>
<wgt id='rwgt_307'> -3.6600544e+01 </wgt>
<wgt id='rwgt_308'> -4.7720683e+01 </wgt>
<wgt id='rwgt_309'> -1.3472593e+00 </wgt>
<wgt id='rwgt_310'> -3.0192312e+00 </wgt>
<wgt id='rwgt_311'> -5.6080543e+01 </wgt>
<wgt id='rwgt_312'> -6.9671824e+01 </wgt>
<wgt id='rwgt_313'> -1.1168825e-01 </wgt>
<wgt id='rwgt_314'> -1.1168825e-01 </wgt>
<wgt id='rwgt_315'> -7.9703656e+01 </wgt>
<wgt id='rwgt_316'> -1.6247743e+01 </wgt>
<wgt id='rwgt_317'> -2.1263659e+01 </wgt>
<wgt id='rwgt_318'> -1.3472593e+00 </wgt>
<wgt id='rwgt_319'> -3.0192312e+00 </wgt>
<wgt id='rwgt_320'> -6.7259443e+00 </wgt>
<wgt id='rwgt_321'> -1.0069888e+01 </wgt>
<wgt id='rwgt_322'> -1.6247743e+01 </wgt>
<wgt id='rwgt_323'> -2.1263659e+01 </wgt>
<wgt id='rwgt_324'> -1.1168825e-01 </wgt>
<wgt id='rwgt_325'> -8.2862280e+00 </wgt>
<wgt id='rwgt_326'> -0.0000000e+00 </wgt>
<wgt id='rwgt_327'> -0.0000000e+00 </wgt>
<wgt id='rwgt_328'> -8.2862280e+00 </wgt>
<wgt id='rwgt_329'> -1.8644013e+01 </wgt>
<wgt id='rwgt_330'> -2.0715570e+00 </wgt>
<wgt id='rwgt_331'> -2.0715570e+00 </wgt>
<wgt id='rwgt_332'> -1.8644013e+01 </wgt>
<wgt id='rwgt_333'> -3.3144912e+01 </wgt>
<wgt id='rwgt_334'> -8.2862280e+00 </wgt>
<wgt id='rwgt_335'> -8.2862280e+00 </wgt>
<wgt id='rwgt_336'> -3.3144912e+01 </wgt>
<wgt id='rwgt_337'> -2.0715570e+00 </wgt>
<wgt id='rwgt_338'> -2.0715570e+00 </wgt>
<wgt id='rwgt_339'> -1.8644013e+01 </wgt>
<wgt id='rwgt_340'> -2.0715570e+00 </wgt>
<wgt id='rwgt_341'> -2.0715570e+00 </wgt>
<wgt id='rwgt_342'> -1.8644013e+01 </wgt>
<wgt id='rwgt_343'> -3.3144912e+01 </wgt>
<wgt id='rwgt_344'> -0.0000000e+00 </wgt>
<wgt id='rwgt_345'> -0.0000000e+00 </wgt>
<wgt id='rwgt_346'> -3.3144912e+01 </wgt>
<wgt id='rwgt_347'> -5.1788925e+01 </wgt>
<wgt id='rwgt_348'> -2.0715570e+00 </wgt>
<wgt id='rwgt_349'> -2.0715570e+00 </wgt>
<wgt id='rwgt_350'> -5.1788925e+01 </wgt>
<wgt id='rwgt_351'> -8.2862280e+00 </wgt>
<wgt id='rwgt_352'> -8.2862280e+00 </wgt>
<wgt id='rwgt_353'> -3.3144912e+01 </wgt>
<wgt id='rwgt_354'> -8.2862280e+00 </wgt>
<wgt id='rwgt_355'> -8.2862280e+00 </wgt>
<wgt id='rwgt_356'> -3.3144912e+01 </wgt>
<wgt id='rwgt_357'> -5.1788925e+01 </wgt>
<wgt id='rwgt_358'> -2.0715570e+00 </wgt>
<wgt id='rwgt_359'> -2.0715570e+00 </wgt>
<wgt id='rwgt_360'> -5.1788925e+01 </wgt>
<wgt id='rwgt_361'> -7.4576052e+01 </wgt>
<wgt id='rwgt_362'> -0.0000000e+00 </wgt>
<wgt id='rwgt_363'> -0.0000000e+00 </wgt>
<wgt id='rwgt_364'> -7.4576052e+01 </wgt>
<wgt id='rwgt_365'> -1.8644013e+01 </wgt>
<wgt id='rwgt_366'> -1.8644013e+01 </wgt>
<wgt id='rwgt_367'> -2.0715570e+00 </wgt>
<wgt id='rwgt_368'> -2.0715570e+00 </wgt>
<wgt id='rwgt_369'> -8.2862280e+00 </wgt>
<wgt id='rwgt_370'> -8.2862280e+00 </wgt>
<wgt id='rwgt_371'> -1.8644013e+01 </wgt>
<wgt id='rwgt_372'> -1.8644013e+01 </wgt>
<wgt id='rwgt_373'> -0.0000000e+00 </wgt>
</rwgt>
</event>
<event npLO=" -1 " npNLO=" 0 ">
 6      0 +9.9972252e+01 5.34728900e+01 7.54677110e-03 9.96362770e-02
        2 -1    0    0  501    0 +0.0000000000e+00 +0.0000000000e+00 +4.9129869000e+02 4.9129869000e+02 0.0000000000e+00 0.0000e+00 9.0000e+00
       -1 -1    0    0    0  501 +0.0000000000e+00 +0.0000000000e+00 -1.1598208000e+01 1.1598208000e+01 0.0000000000e+00 0.0000e+00 9.0000e+00
       24  2    1    2    0    0 +4.6516999000e+01 +1.1121126000e+01 +3.9525930000e+02 4.0585142000e+02 7.8727094000e+01 0.0000e+00 0.0000e+00
      -13  1    3    3    0    0 +1.2390076000e+01 -1.2510526000e+01 +1.4426248000e+01 2.2762774000e+01 0.0000000000e+00 0.0000e+00 9.0000e+00
       14  1    3    3    0    0 +3.4126923000e+01 +2.3631652000e+01 +3.8083305000e+02 3.8308865000e+02 0.0000000000e+00 0.0000e+00 9.0000e+00
       22  1    1    2    0    0 -4.6516999000e+01 -1.1121126000e+01 +8.4441185000e+01 9.7045476000e+01 0.0000000000e+00 0.0000e+00 9.0000e+00
#aMCatNLO 1  0  0  1  2 0.45359018E+03 0.00000000E+00 -9  6  0 0.00000000E+00 0.00000000E+00 0.00000000E+00 0.00000000E+00 0.00000000E+00
<rwgt>
<wgt id='1001'> +9.9976000e+01 </wgt>
<wgt id='1002'> +9.9858000e+01 </wgt>
<wgt id='1003'> +1.0011000e+02 </wgt>
<wgt id='1004'> +1.0659000e+02 </wgt>
<wgt id='1005'> +1.0654000e+02 </wgt>
<wgt id='1006'> +1.0666000e+02 </wgt>
<wgt id='1007'> +9.2291000e+01 </wgt>
<wgt id='1008'> +9.2129000e+01 </wgt>
<wgt id='1009'> +9.2489000e+01 </wgt>
<wgt id='1010'> +9.9976000e+01 </wgt>
<wgt id='1011'> +9.6587000e+01 </wgt>
<wgt id='1012'> +1.0135000e+02 </wgt>
<wgt id='1013'> +1.0325000e+02 </wgt>
<wgt id='1014'> +1.0257000e+02 </wgt>
<wgt id='1015'> +9.3177000e+01 </wgt>
<wgt id='1016'> +9.7114000e+01 </wgt>
<wgt id='1017'> +1.0050000e+02 </wgt>
<wgt id='1018'> +9.8965000e+01 </wgt>
<wgt id='1019'> +9.9907000e+01 </wgt>
<wgt id='1020'> +9.9436000e+01 </wgt>
<wgt id='1021'> +9.9024000e+01 </wgt>
<wgt id='1022'> +9.8818000e+01 </wgt>
<wgt id='1023'> +1.0284000e+02 </wgt>
<wgt id='1024'> +1.0008000e+02 </wgt>
<wgt id='1025'> +1.0027000e+02 </wgt>
<wgt id='1026'> +9.7713000e+01 </wgt>
<wgt id='1027'> +9.8150000e+01 </wgt>
<wgt id='1028'> +9.4866000e+01 </wgt>
<wgt id='1029'> +1.0026000e+02 </wgt>
<wgt id='1030'> +9.8288000e+01 </wgt>
<wgt id='1031'> +1.0415000e+02 </wgt>
<wgt id='1032'> +1.0105000e+02 </wgt>
<wgt id='1033'> +1.0413000e+02 </wgt>
<wgt id='1034'> +9.9662000e+01 </wgt>
<wgt id='1035'> +1.0031000e+02 </wgt>
<wgt id='1036'> +1.0094000e+02 </wgt>
<wgt id='1037'> +9.7469000e+01 </wgt>
<wgt id='1038'> +9.8818000e+01 </wgt>
<wgt id='1039'> +9.8886000e+01 </wgt>
<wgt id='1040'> +1.0081000e+02 </wgt>
<wgt id='1041'> +1.0267000e+02 </wgt>
<wgt id='1042'> +9.8268000e+01 </wgt>
<wgt id='1043'> +1.0063000e+02 </wgt>
<wgt id='1044'> +1.0016000e+02 </wgt>
<wgt id='1045'> +1.0213000e+02 </wgt>
<wgt id='1046'> +9.9937000e+01 </wgt>
<wgt id='1047'> +9.8651000e+01 </wgt>
<wgt id='1048'> +9.6903000e+01 </wgt>
<wgt id='1049'> +1.0012000e+02 </wgt>
<wgt id='1050'> +1.0121000e+02 </wgt>
<wgt id='1051'> +1.0281000e+02 </wgt>
<wgt id='1052'> +1.0162000e+02 </wgt>
<wgt id='1053'> +1.0088000e+02 </wgt>
<wgt id='1054'> +1.0002000e+02 </wgt>
<wgt id='1055'> +1.0194000e+02 </wgt>
<wgt id='1056'> +1.0005000e+02 </wgt>
<wgt id='1057'> +9.9014000e+01 </wgt>
<wgt id='1058'> +9.9181000e+01 </wgt>
<wgt id='1059'> +9.8219000e+01 </wgt>
<wgt id='1060'> +1.0219000e+02 </wgt>
<wgt id='1061'> +1.0152000e+02 </wgt>
<wgt id='1062'> +9.9789000e+01 </wgt>
<wgt id='1063'> +9.8798000e+01 </wgt>
<wgt id='1064'> +1.0160000e+02 </wgt>
<wgt id='1065'> +1.0034000e+02 </wgt>
<wgt id='1066'> +9.9014000e+01 </wgt>
<wgt id='1067'> +1.0289000e+02 </wgt>
<wgt id='1068'> +1.0187000e+02 </wgt>
<wgt id='1069'> +1.0117000e+02 </wgt>
<wgt id='1070'> +1.0112000e+02 </wgt>
<wgt id='1071'> +9.9838000e+01 </wgt>
<wgt id='1072'> +9.9927000e+01 </wgt>
<wgt id='1073'> +9.7325000e+01 </wgt>
<wgt id='1074'> +9.6475000e+01 </wgt>
<wgt id='1075'> +1.0095000e+02 </wgt>
<wgt id='1076'> +9.9956000e+01 </wgt>
<wgt id='1077'> +1.0288000e+02 </wgt>
<wgt id='1078'> +1.0198000e+02 </wgt>
<wgt id='1079'> +9.8867000e+01 </wgt>
<wgt id='1080'> +9.8680000e+01 </wgt>
<wgt id='1081'> +1.0087000e+02 </wgt>
<wgt id='1082'> +9.6904000e+01 </wgt>
<wgt id='1083'> +9.5404000e+01 </wgt>
<wgt id='1084'> +1.0086000e+02 </wgt>
<wgt id='1085'> +1.0038000e+02 </wgt>
<wgt id='1086'> +9.6778000e+01 </wgt>
<wgt id='1087'> +9.9397000e+01 </wgt>
<wgt id='1088'> +1.0201000e+02 </wgt>
<wgt id='1089'> +9.8445000e+01 </wgt>
<wgt id='1090'> +1.0181000e+02 </wgt>
<wgt id='1091'> +1.0320000e+02 </wgt>
<wgt id='1092'> +1.0168000e+02 </wgt>
<wgt id='1093'> +9.8004000e+01 </wgt>
<wgt id='1094'> +1.0068000e+02 </wgt>
<wgt id='1095'> +9.8739000e+01 </wgt>
<wgt id='1096'> +9.8847000e+01 </wgt>
<wgt id='1097'> +1.0126000e+02 </wgt>
<wgt id='1098'> +1.0237000e+02 </wgt>
<wgt id='1099'> +9.7530000e+01 </wgt>
<wgt id='1100'> +1.0083000e+02 </wgt>
<wgt id='1101'> +1.0142000e+02 </wgt>
<wgt id='1102'> +9.8867000e+01 </wgt>
<wgt id='1103'> +9.8670000e+01 </wgt>
<wgt id='1104'> +1.0104000e+02 </wgt>
<wgt id='1105'> +9.7356000e+01 </wgt>
<wgt id='1106'> +1.0025000e+02 </wgt>
<wgt id='1107'> +1.0044000e+02 </wgt>
<wgt id='1108'> +1.0240000e+02 </wgt>
<wgt id='1109'> +1.0148000e+02 </wgt>
<wgt id='1110'> +9.7820000e+01 </wgt>
<wgt id='1111'> +9.9564000e+01 </wgt>
<wgt id='1112'> +1.0052000e+02 </wgt>
<wgt id='rwgt_1'> +4.3760531e-02 </wgt>
<wgt id='rwgt_2'> +4.3760531e-02 </wgt>
<wgt id='rwgt_3'> +3.9384478e-01 </wgt>
<wgt id='rwgt_4'> +3.9384478e-01 </wgt>
<wgt id='rwgt_5'> +1.0940133e+00 </wgt>
<wgt id='rwgt_6'> +1.0940133e+00 </wgt>
<wgt id='rwgt_7'> +1.6943929e+00 </wgt>
<wgt id='rwgt_8'> +1.6943929e+00 </wgt>
<wgt id='rwgt_9'> +6.7775715e+00 </wgt>
<wgt id='rwgt_10'> +6.7775715e+00 </wgt>
<wgt id='rwgt_11'> +1.5249536e+01 </wgt>
<wgt id='rwgt_12'> +1.5249536e+01 </wgt>
<wgt id='rwgt_13'> +1.6943929e+00 </wgt>
<wgt id='rwgt_14'> +1.6943929e+00 </wgt>
<wgt id='rwgt_15'> +6.7775715e+00 </wgt>
<wgt id='rwgt_16'> +6.7775715e+00 </wgt>
<wgt id='rwgt_17'> +1.5249536e+01 </wgt>
<wgt id='rwgt_18'> +1.5249536e+01 </wgt>
<wgt id='rwgt_19'> +1.1202696e-01 </wgt>
<wgt id='rwgt_20'> +1.1202696e-01 </wgt>
<wgt id='rwgt_21'> +4.4810784e-01 </wgt>
<wgt id='rwgt_22'> +4.4810784e-01 </wgt>
<wgt id='rwgt_23'> +1.0082426e+00 </wgt>
<wgt id='rwgt_24'> +1.0082426e+00 </wgt>
<wgt id='rwgt_25'> +1.6943929e+00 </wgt>
<wgt id='rwgt_26'> +1.6943929e+00 </wgt>
<wgt id='rwgt_27'> +6.7775715e+00 </wgt>
<wgt id='rwgt_28'> +6.7775715e+00 </wgt>
<wgt id='rwgt_29'> +1.5249536e+01 </wgt>
<wgt id='rwgt_30'> +1.5249536e+01 </wgt>
<wgt id='rwgt_31'> +7.8315182e+00 </wgt>
<wgt id='rwgt_32'> +4.3760531e-02 </wgt>
<wgt id='rwgt_33'> +4.3760531e-02 </wgt>
<wgt id='rwgt_34'> +5.8111460e+00 </wgt>
<wgt id='rwgt_35'> +1.6808576e+01 </wgt>
<wgt id='rwgt_36'> +1.2330604e+00 </wgt>
<wgt id='rwgt_37'> +2.2432465e+00 </wgt>
<wgt id='rwgt_38'> +1.3778017e+01 </wgt>
<wgt id='rwgt_39'> +2.9174419e+01 </wgt>
<wgt id='rwgt_40'> +5.8111460e+00 </wgt>
<wgt id='rwgt_41'> +7.8315182e+00 </wgt>
<wgt id='rwgt_42'> +2.5133674e+01 </wgt>
<wgt id='rwgt_43'> +2.2432465e+00 </wgt>
<wgt id='rwgt_44'> +1.2330604e+00 </wgt>
<wgt id='rwgt_45'> +1.6808576e+01 </wgt>
<wgt id='rwgt_46'> +2.2432465e+00 </wgt>
<wgt id='rwgt_47'> +1.2330604e+00 </wgt>
<wgt id='rwgt_48'> +1.3778017e+01 </wgt>
<wgt id='rwgt_49'> +2.9174419e+01 </wgt>
<wgt id='rwgt_50'> +4.3760531e-02 </wgt>
<wgt id='rwgt_51'> +4.3760531e-02 </wgt>
<wgt id='rwgt_52'> +2.5133674e+01 </wgt>
<wgt id='rwgt_53'> +4.4929048e+01 </wgt>
<wgt id='rwgt_54'> +1.2330604e+00 </wgt>
<wgt id='rwgt_55'> +2.2432465e+00 </wgt>
<wgt id='rwgt_56'> +3.9878117e+01 </wgt>
<wgt id='rwgt_57'> +7.8315182e+00 </wgt>
<wgt id='rwgt_58'> +5.8111460e+00 </wgt>
<wgt id='rwgt_59'> +2.9174419e+01 </wgt>
<wgt id='rwgt_60'> +7.8315182e+00 </wgt>
<wgt id='rwgt_61'> +5.8111460e+00 </wgt>
<wgt id='rwgt_62'> +2.5133674e+01 </wgt>
<wgt id='rwgt_63'> +4.4929048e+01 </wgt>
<wgt id='rwgt_64'> +2.2432465e+00 </wgt>
<wgt id='rwgt_65'> +1.2330604e+00 </wgt>
<wgt id='rwgt_66'> +3.9878117e+01 </wgt>
<wgt id='rwgt_67'> +6.4072463e+01 </wgt>
<wgt id='rwgt_68'> +4.3760531e-02 </wgt>
<wgt id='rwgt_69'> +4.3760531e-02 </wgt>
<wgt id='rwgt_70'> +5.8011346e+01 </wgt>
<wgt id='rwgt_71'> +1.6808576e+01 </wgt>
<wgt id='rwgt_72'> +1.3778017e+01 </wgt>
<wgt id='rwgt_73'> +2.2432465e+00 </wgt>
<wgt id='rwgt_74'> +1.2330604e+00 </wgt>
<wgt id='rwgt_75'> +7.8315182e+00 </wgt>
<wgt id='rwgt_76'> +5.8111460e+00 </wgt>
<wgt id='rwgt_77'> +1.6808576e+01 </wgt>
<wgt id='rwgt_78'> +1.3778017e+01 </wgt>
<wgt id='rwgt_79'> +4.3760531e-02 </wgt>
<wgt id='rwgt_80'> +5.8111460e+00 </wgt>
<wgt id='rwgt_81'> +4.3760531e-02 </wgt>
<wgt id='rwgt_82'> +4.3760531e-02 </wgt>
<wgt id='rwgt_83'> +7.8315182e+00 </wgt>
<wgt id='rwgt_84'> +1.3778017e+01 </wgt>
<wgt id='rwgt_85'> +2.2432465e+00 </wgt>
<wgt id='rwgt_86'> +1.2330604e+00 </wgt>
<wgt id='rwgt_87'> +1.6808576e+01 </wgt>
<wgt id='rwgt_88'> +2.5133674e+01 </wgt>
<wgt id='rwgt_89'> +7.8315182e+00 </wgt>
<wgt id='rwgt_90'> +5.8111460e+00 </wgt>
<wgt id='rwgt_91'> +2.9174419e+01 </wgt>
<wgt id='rwgt_92'> +1.2330604e+00 </wgt>
<wgt id='rwgt_93'> +2.2432465e+00 </wgt>
<wgt id='rwgt_94'> +1.3778017e+01 </wgt>
<wgt id='rwgt_95'> +1.2330604e+00 </wgt>
<wgt id='rwgt_96'> +2.2432465e+00 </wgt>
<wgt id='rwgt_97'> +1.6808576e+01 </wgt>
<wgt id='rwgt_98'> +2.5133674e+01 </wgt>
<wgt id='rwgt_99'> +4.3760531e-02 </wgt>
<wgt id='rwgt_100'> +4.3760531e-02 </wgt>
<wgt id='rwgt_101'> +2.9174419e+01 </wgt>
<wgt id='rwgt_102'> +3.9878117e+01 </wgt>
<wgt id='rwgt_103'> +2.2432465e+00 </wgt>
<wgt id='rwgt_104'> +1.2330604e+00 </wgt>
<wgt id='rwgt_105'> +4.4929048e+01 </wgt>
<wgt id='rwgt_106'> +5.8111460e+00 </wgt>
<wgt id='rwgt_107'> +7.8315182e+00 </wgt>
<wgt id='rwgt_108'> +2.5133674e+01 </wgt>
<wgt id='rwgt_109'> +5.8111460e+00 </wgt>
<wgt id='rwgt_110'> +7.8315182e+00 </wgt>
<wgt id='rwgt_111'> +2.9174419e+01 </wgt>
<wgt id='rwgt_112'> +3.9878117e+01 </wgt>
<wgt id='rwgt_113'> +1.2330604e+00 </wgt>
<wgt id='rwgt_114'> +2.2432465e+00 </wgt>
<wgt id='rwgt_115'> +4.4929048e+01 </wgt>
<wgt id='rwgt_116'> +5.8011346e+01 </wgt>
<wgt id='rwgt_117'> +4.3760531e-02 </wgt>
<wgt id='rwgt_118'> +4.3760531e-02 </wgt>
<wgt id='rwgt_119'> +6.4072463e+01 </wgt>
<wgt id='rwgt_120'> +1.3778017e+01 </wgt>
<wgt id='rwgt_121'> +1.6808576e+01 </wgt>
<wgt id='rwgt_122'> +1.2330604e+00 </wgt>
<wgt id='rwgt_123'> +2.2432465e+00 </wgt>
<wgt id='rwgt_124'> +5.8111460e+00 </wgt>
<wgt id='rwgt_125'> +7.8315182e+00 </wgt>
<wgt id='rwgt_126'> +1.3778017e+01 </wgt>
<wgt id='rwgt_127'> +1.6808576e+01 </wgt>
<wgt id='rwgt_128'> +4.3760531e-02 </wgt>
<wgt id='rwgt_129'> +1.0201975e+01 </wgt>
<wgt id='rwgt_130'> +3.9384478e-01 </wgt>
<wgt id='rwgt_131'> +3.9384478e-01 </wgt>
<wgt id='rwgt_132'> +4.1408580e+00 </wgt>
<wgt id='rwgt_133'> +2.0189218e+01 </wgt>
<wgt id='rwgt_134'> +5.7295850e-01 </wgt>
<wgt id='rwgt_135'> +3.6035168e+00 </wgt>
<wgt id='rwgt_136'> +1.1097543e+01 </wgt>
<wgt id='rwgt_137'> +3.3565248e+01 </wgt>
<wgt id='rwgt_138'> +4.1408580e+00 </wgt>
<wgt id='rwgt_139'> +1.0201975e+01 </wgt>
<wgt id='rwgt_140'> +2.1443014e+01 </wgt>
<wgt id='rwgt_141'> +3.6035168e+00 </wgt>
<wgt id='rwgt_142'> +5.7295850e-01 </wgt>
<wgt id='rwgt_143'> +2.0189218e+01 </wgt>
<wgt id='rwgt_144'> +3.6035168e+00 </wgt>
<wgt id='rwgt_145'> +5.7295850e-01 </wgt>
<wgt id='rwgt_146'> +1.1097543e+01 </wgt>
<wgt id='rwgt_147'> +3.3565248e+01 </wgt>
<wgt id='rwgt_148'> +3.9384478e-01 </wgt>
<wgt id='rwgt_149'> +3.9384478e-01 </wgt>
<wgt id='rwgt_150'> +2.1443014e+01 </wgt>
<wgt id='rwgt_151'> +5.0330063e+01 </wgt>
<wgt id='rwgt_152'> +5.7295850e-01 </wgt>
<wgt id='rwgt_153'> +3.6035168e+00 </wgt>
<wgt id='rwgt_154'> +3.5177271e+01 </wgt>
<wgt id='rwgt_155'> +1.0201975e+01 </wgt>
<wgt id='rwgt_156'> +4.1408580e+00 </wgt>
<wgt id='rwgt_157'> +3.3565248e+01 </wgt>
<wgt id='rwgt_158'> +1.0201975e+01 </wgt>
<wgt id='rwgt_159'> +4.1408580e+00 </wgt>
<wgt id='rwgt_160'> +2.1443014e+01 </wgt>
<wgt id='rwgt_161'> +5.0330063e+01 </wgt>
<wgt id='rwgt_162'> +3.6035168e+00 </wgt>
<wgt id='rwgt_163'> +5.7295850e-01 </wgt>
<wgt id='rwgt_164'> +3.5177271e+01 </wgt>
<wgt id='rwgt_165'> +7.0483663e+01 </wgt>
<wgt id='rwgt_166'> +3.9384478e-01 </wgt>
<wgt id='rwgt_167'> +3.9384478e-01 </wgt>
<wgt id='rwgt_168'> +5.2300314e+01 </wgt>
<wgt id='rwgt_169'> +2.0189218e+01 </wgt>
<wgt id='rwgt_170'> +1.1097543e+01 </wgt>
<wgt id='rwgt_171'> +3.6035168e+00 </wgt>
<wgt id='rwgt_172'> +5.7295850e-01 </wgt>
<wgt id='rwgt_173'> +1.0201975e+01 </wgt>
<wgt id='rwgt_174'> +4.1408580e+00 </wgt>
<wgt id='rwgt_175'> +2.0189218e+01 </wgt>
<wgt id='rwgt_176'> +1.1097543e+01 </wgt>
<wgt id='rwgt_177'> +3.9384478e-01 </wgt>
<wgt id='rwgt_178'> +4.1408580e+00 </wgt>
<wgt id='rwgt_179'> +3.9384478e-01 </wgt>
<wgt id='rwgt_180'> +3.9384478e-01 </wgt>
<wgt id='rwgt_181'> +1.0201975e+01 </wgt>
<wgt id='rwgt_182'> +1.1097543e+01 </wgt>
<wgt id='rwgt_183'> +3.6035168e+00 </wgt>
<wgt id='rwgt_184'> +5.7295850e-01 </wgt>
<wgt id='rwgt_185'> +2.0189218e+01 </wgt>
<wgt id='rwgt_186'> +2.1443014e+01 </wgt>
<wgt id='rwgt_187'> +1.0201975e+01 </wgt>
<wgt id='rwgt_188'> +4.1408580e+00 </wgt>
<wgt id='rwgt_189'> +3.3565248e+01 </wgt>
<wgt id='rwgt_190'> +5.7295850e-01 </wgt>
<wgt id='rwgt_191'> +3.6035168e+00 </wgt>
<wgt id='rwgt_192'> +1.1097543e+01 </wgt>
<wgt id='rwgt_193'> +5.7295850e-01 </wgt>
<wgt id='rwgt_194'> +3.6035168e+00 </wgt>
<wgt id='rwgt_195'> +2.0189218e+01 </wgt>
<wgt id='rwgt_196'> +2.1443014e+01 </wgt>
<wgt id='rwgt_197'> +3.9384478e-01 </wgt>
<wgt id='rwgt_198'> +3.9384478e-01 </wgt>
<wgt id='rwgt_199'> +3.3565248e+01 </wgt>
<wgt id='rwgt_200'> +3.5177271e+01 </wgt>
<wgt id='rwgt_201'> +3.6035168e+00 </wgt>
<wgt id='rwgt_202'> +5.7295850e-01 </wgt>
<wgt id='rwgt_203'> +5.0330063e+01 </wgt>
<wgt id='rwgt_204'> +4.1408580e+00 </wgt>
<wgt id='rwgt_205'> +1.0201975e+01 </wgt>
<wgt id='rwgt_206'> +2.1443014e+01 </wgt>
<wgt id='rwgt_207'> +4.1408580e+00 </wgt>
<wgt id='rwgt_208'> +1.0201975e+01 </wgt>
<wgt id='rwgt_209'> +3.3565248e+01 </wgt>
<wgt id='rwgt_210'> +3.5177271e+01 </wgt>
<wgt id='rwgt_211'> +5.7295850e-01 </wgt>
<wgt id='rwgt_212'> +3.6035168e+00 </wgt>
<wgt id='rwgt_213'> +5.0330063e+01 </wgt>
<wgt id='rwgt_214'> +5.2300314e+01 </wgt>
<wgt id='rwgt_215'> +3.9384478e-01 </wgt>
<wgt id='rwgt_216'> +3.9384478e-01 </wgt>
<wgt id='rwgt_217'> +7.0483663e+01 </wgt>
<wgt id='rwgt_218'> +1.1097543e+01 </wgt>
<wgt id='rwgt_219'> +2.0189218e+01 </wgt>
<wgt id='rwgt_220'> +5.7295850e-01 </wgt>
<wgt id='rwgt_221'> +3.6035168e+00 </wgt>
<wgt id='rwgt_222'> +4.1408580e+00 </wgt>
<wgt id='rwgt_223'> +1.0201975e+01 </wgt>
<wgt id='rwgt_224'> +1.1097543e+01 </wgt>
<wgt id='rwgt_225'> +2.0189218e+01 </wgt>
<wgt id='rwgt_226'> +3.9384478e-01 </wgt>
<wgt id='rwgt_227'> +1.2922515e+01 </wgt>
<wgt id='rwgt_228'> +1.0940133e+00 </wgt>
<wgt id='rwgt_229'> +1.0940133e+00 </wgt>
<wgt id='rwgt_230'> +2.8206543e+00 </wgt>
<wgt id='rwgt_231'> +2.3919945e+01 </wgt>
<wgt id='rwgt_232'> +2.6294090e-01 </wgt>
<wgt id='rwgt_233'> +5.3138714e+00 </wgt>
<wgt id='rwgt_234'> +8.7671534e+00 </wgt>
<wgt id='rwgt_235'> +3.8306160e+01 </wgt>
<wgt id='rwgt_236'> +2.8206543e+00 </wgt>
<wgt id='rwgt_237'> +1.2922515e+01 </wgt>
<wgt id='rwgt_238'> +1.8102438e+01 </wgt>
<wgt id='rwgt_239'> +5.3138714e+00 </wgt>
<wgt id='rwgt_240'> +2.6294090e-01 </wgt>
<wgt id='rwgt_241'> +2.3919945e+01 </wgt>
<wgt id='rwgt_242'> +5.3138714e+00 </wgt>
<wgt id='rwgt_243'> +2.6294090e-01 </wgt>
<wgt id='rwgt_244'> +8.7671534e+00 </wgt>
<wgt id='rwgt_245'> +3.8306160e+01 </wgt>
<wgt id='rwgt_246'> +1.0940133e+00 </wgt>
<wgt id='rwgt_247'> +1.0940133e+00 </wgt>
<wgt id='rwgt_248'> +1.8102438e+01 </wgt>
<wgt id='rwgt_249'> +5.6081162e+01 </wgt>
<wgt id='rwgt_250'> +2.6294090e-01 </wgt>
<wgt id='rwgt_251'> +5.3138714e+00 </wgt>
<wgt id='rwgt_252'> +3.0826509e+01 </wgt>
<wgt id='rwgt_253'> +1.2922515e+01 </wgt>
<wgt id='rwgt_254'> +2.8206543e+00 </wgt>
<wgt id='rwgt_255'> +3.8306160e+01 </wgt>
<wgt id='rwgt_256'> +1.2922515e+01 </wgt>
<wgt id='rwgt_257'> +2.8206543e+00 </wgt>
<wgt id='rwgt_258'> +1.8102438e+01 </wgt>
<wgt id='rwgt_259'> +5.6081162e+01 </wgt>
<wgt id='rwgt_260'> +5.3138714e+00 </wgt>
<wgt id='rwgt_261'> +2.6294090e-01 </wgt>
<wgt id='rwgt_262'> +3.0826509e+01 </wgt>
<wgt id='rwgt_263'> +7.7244949e+01 </wgt>
<wgt id='rwgt_264'> +1.0940133e+00 </wgt>
<wgt id='rwgt_265'> +1.0940133e+00 </wgt>
<wgt id='rwgt_266'> +4.6939365e+01 </wgt>
<wgt id='rwgt_267'> +2.3919945e+01 </wgt>
<wgt id='rwgt_268'> +8.7671534e+00 </wgt>
<wgt id='rwgt_269'> +5.3138714e+00 </wgt>
<wgt id='rwgt_270'> +2.6294090e-01 </wgt>
<wgt id='rwgt_271'> +1.2922515e+01 </wgt>
<wgt id='rwgt_272'> +2.8206543e+00 </wgt>
<wgt id='rwgt_273'> +2.3919945e+01 </wgt>
<wgt id='rwgt_274'> +8.7671534e+00 </wgt>
<wgt id='rwgt_275'> +1.0940133e+00 </wgt>
<wgt id='rwgt_276'> +2.8206543e+00 </wgt>
<wgt id='rwgt_277'> +1.0940133e+00 </wgt>
<wgt id='rwgt_278'> +1.0940133e+00 </wgt>
<wgt id='rwgt_279'> +1.2922515e+01 </wgt>
<wgt id='rwgt_280'> +8.7671534e+00 </wgt>
<wgt id='rwgt_281'> +5.3138714e+00 </wgt>
<wgt id='rwgt_282'> +2.6294090e-01 </wgt>
<wgt id='rwgt_283'> +2.3919945e+01 </wgt>
<wgt id='rwgt_284'> +1.8102438e+01 </wgt>
<wgt id='rwgt_285'> +1.2922515e+01 </wgt>
<wgt id='rwgt_286'> +2.8206543e+00 </wgt>
<wgt id='rwgt_287'> +3.8306160e+01 </wgt>
<wgt id='rwgt_288'> +2.6294090e-01 </wgt>
<wgt id='rwgt_289'> +5.3138714e+00 </wgt>
<wgt id='rwgt_290'> +8.7671534e+00 </wgt>
<wgt id='rwgt_291'> +2.6294090e-01 </wgt>
<wgt id='rwgt_292'> +5.3138714e+00 </wgt>
<wgt id='rwgt_293'> +2.3919945e+01 </wgt>
<wgt id='rwgt_294'> +1.8102438e+01 </wgt>
<wgt id='rwgt_295'> +1.0940133e+00 </wgt>
<wgt id='rwgt_296'> +1.0940133e+00 </wgt>
<wgt id='rwgt_297'> +3.8306160e+01 </wgt>
<wgt id='rwgt_298'> +3.0826509e+01 </wgt>
<wgt id='rwgt_299'> +5.3138714e+00 </wgt>
<wgt id='rwgt_300'> +2.6294090e-01 </wgt>
<wgt id='rwgt_301'> +5.6081162e+01 </wgt>
<wgt id='rwgt_302'> +2.8206543e+00 </wgt>
<wgt id='rwgt_303'> +1.2922515e+01 </wgt>
<wgt id='rwgt_304'> +1.8102438e+01 </wgt>
<wgt id='rwgt_305'> +2.8206543e+00 </wgt>
<wgt id='rwgt_306'> +1.2922515e+01 </wgt>
<wgt id='rwgt_307'> +3.8306160e+01 </wgt>
<wgt id='rwgt_308'> +3.0826509e+01 </wgt>
<wgt id='rwgt_309'> +2.6294090e-01 </wgt>
<wgt id='rwgt_310'> +5.3138714e+00 </wgt>
<wgt id='rwgt_311'> +5.6081162e+01 </wgt>
<wgt id='rwgt_312'> +4.6939365e+01 </wgt>
<wgt id='rwgt_313'> +1.0940133e+00 </wgt>
<wgt id='rwgt_314'> +1.0940133e+00 </wgt>
<wgt id='rwgt_315'> +7.7244949e+01 </wgt>
<wgt id='rwgt_316'> +8.7671534e+00 </wgt>
<wgt id='rwgt_317'> +2.3919945e+01 </wgt>
<wgt id='rwgt_318'> +2.6294090e-01 </wgt>
<wgt id='rwgt_319'> +5.3138714e+00 </wgt>
<wgt id='rwgt_320'> +2.8206543e+00 </wgt>
<wgt id='rwgt_321'> +1.2922515e+01 </wgt>
<wgt id='rwgt_322'> +8.7671534e+00 </wgt>
<wgt id='rwgt_323'> +2.3919945e+01 </wgt>
<wgt id='rwgt_324'> +1.0940133e+00 </wgt>
<wgt id='rwgt_325'> +6.7775715e+00 </wgt>
<wgt id='rwgt_326'> +0.0000000e+00 </wgt>
<wgt id='rwgt_327'> +0.0000000e+00 </wgt>
<wgt id='rwgt_328'> +6.7775715e+00 </wgt>
<wgt id='rwgt_329'> +1.5249536e+01 </wgt>
<wgt id='rwgt_330'> +1.6943929e+00 </wgt>
<wgt id='rwgt_331'> +1.6943929e+00 </wgt>
<wgt id='rwgt_332'> +1.5249536e+01 </wgt>
<wgt id='rwgt_333'> +2.7110286e+01 </wgt>
<wgt id='rwgt_334'> +6.7775715e+00 </wgt>
<wgt id='rwgt_335'> +6.7775715e+00 </wgt>
<wgt id='rwgt_336'> +2.7110286e+01 </wgt>
<wgt id='rwgt_337'> +1.6943929e+00 </wgt>
<wgt id='rwgt_338'> +1.6943929e+00 </wgt>
<wgt id='rwgt_339'> +1.5249536e+01 </wgt>
<wgt id='rwgt_340'> +1.6943929e+00 </wgt>
<wgt id='rwgt_341'> +1.6943929e+00 </wgt>
<wgt id='rwgt_342'> +1.5249536e+01 </wgt>
<wgt id='rwgt_343'> +2.7110286e+01 </wgt>
<wgt id='rwgt_344'> +0.0000000e+00 </wgt>
<wgt id='rwgt_345'> +0.0000000e+00 </wgt>
<wgt id='rwgt_346'> +2.7110286e+01 </wgt>
<wgt id='rwgt_347'> +4.2359822e+01 </wgt>
<wgt id='rwgt_348'> +1.6943929e+00 </wgt>
<wgt id='rwgt_349'> +1.6943929e+00 </wgt>
<wgt id='rwgt_350'> +4.2359822e+01 </wgt>
<wgt id='rwgt_351'> +6.7775715e+00 </wgt>
<wgt id='rwgt_352'> +6.7775715e+00 </wgt>
<wgt id='rwgt_353'> +2.7110286e+01 </wgt>
<wgt id='rwgt_354'> +6.7775715e+00 </wgt>
<wgt id='rwgt_355'> +6.7775715e+00 </wgt>
<wgt id='rwgt_356'> +2.7110286e+01 </wgt>
<wgt id='rwgt_357'> +4.2359822e+01 </wgt>
<wgt id='rwgt_358'> +1.6943929e+00 </wgt>
<wgt id='rwgt_359'> +1.6943929e+00 </wgt>
<wgt id='rwgt_360'> +4.2359822e+01 </wgt>
<wgt id='rwgt_361'> +6.0998144e+01 </wgt>
<wgt id='rwgt_362'> +0.0000000e+00 </wgt>
<wgt id='rwgt_363'> +0.0000000e+00 </wgt>
<wgt id='rwgt_364'> +6.0998144e+01 </wgt>
<wgt id='rwgt_365'> +1.5249536e+01 </wgt>
<wgt id='rwgt_366'> +1.5249536e+01 </wgt>
<wgt id='rwgt_367'> +1.6943929e+00 </wgt>
<wgt id='rwgt_368'> +1.6943929e+00 </wgt>
<wgt id='rwgt_369'> +6.7775715e+00 </wgt>
<wgt id='rwgt_370'> +6.7775715e+00 </wgt>
<wgt id='rwgt_371'> +1.5249536e+01 </wgt>
<wgt id='rwgt_372'> +1.5249536e+01 </wgt>
<wgt id='rwgt_373'> +0.0000000e+00 </wgt>
</rwgt>
</event>
<event npLO=" -1 " npNLO=" 1 ">
 7      1 +9.9972252e+01 2.05708900e+01 7.54677110e-03 1.19533330e-01
        4 -1    0    0  502    0 +0.0000000000e+00 +0.0000000000e+00 +4.2059476000e+02 4.2059476000e+02 0.0000000000e+00 0.0000e+00 9.0000e+00
       -3 -1    0    0    0  501 +0.0000000000e+00 +0.0000000000e+00 -2.0585514000e+02 2.0585514000e+02 0.0000000000e+00 0.0000e+00 9.0000e+00
       24  2    1    2    0    0 +6.5957120000e+00 -1.1354004000e+00 -9.0210795000e+01 1.2201382000e+02 8.1881570000e+01 0.0000e+00 0.0000e+00
      -13  1    3    3    0    0 +4.1694583000e+01 -3.5640646000e-01 -2.6899471000e+01 4.9620024000e+01 0.0000000000e+00 0.0000e+00 9.0000e+00
       14  1    3    3    0    0 -3.5098871000e+01 -7.7899390000e-01 -6.3311324000e+01 7.2393793000e+01 0.0000000000e+00 0.0000e+00 9.0000e+00
       22  1    1    2    0    0 +6.2173307000e+00 +1.7228487000e+01 -9.8637817000e+01 1.0032395000e+02 0.0000000000e+00 0.0000e+00 9.0000e+00
       21  1    1    2  502  501 -1.2813043000e+01 -1.6093086000e+01 +4.0358823000e+02 4.0411214000e+02 0.0000000000e+00 0.0000e+00 9.0000e+00
#aMCatNLO 1  0  0  1  6 0.78501649E+00 0.00000000E+00 -9  7  0 0.00000000E+00 0.00000000E+00 0.00000000E+00 0.00000000E+00 0.00000000E+00
<rwgt>
<wgt id='1001'> +9.9973000e+01 </wgt>
<wgt id='1002'> +9.0148000e+01 </wgt>
<wgt id='1003'> +1.1214000e+02 </wgt>
<wgt id='1004'> +6.0040000e+01 </wgt>
<wgt id='1005'> +6.0002000e+01 </wgt>
<wgt id='1006'> +5.7162000e+01 </wgt>
<wgt id='1007'> +1.3994000e+02 </wgt>
<wgt id='1008'> +1.2002000e+02 </wgt>
<wgt id='1009'> +1.6771000e+02 </wgt>
<wgt id='1010'> +9.9973000e+01 </wgt>
<wgt id='1011'> +9.4404000e+01 </wgt>
<wgt id='1012'> +1.0374000e+02 </wgt>
<wgt id='1013'> +1.0391000e+02 </wgt>
<wgt id='1014'> +9.3184000e+01 </wgt>
<wgt id='1015'> +9.4645000e+01 </wgt>
<wgt id='1016'> +1.0997000e+02 </wgt>
<wgt id='1017'> +9.6618000e+01 </wgt>
<wgt id='1018'> +1.0098000e+02 </wgt>
<wgt id='1019'> +1.0488000e+02 </wgt>
<wgt id='1020'> +1.0249000e+02 </wgt>
<wgt id='1021'> +9.0178000e+01 </wgt>
<wgt id='1022'> +9.6289000e+01 </wgt>
<wgt id='1023'> +1.0279000e+02 </wgt>
<wgt id='1024'> +9.6589000e+01 </wgt>
<wgt id='1025'> +1.1239000e+02 </wgt>
<wgt id='1026'> +1.0072000e+02 </wgt>
<wgt id='1027'> +1.0254000e+02 </wgt>
<wgt id='1028'> +1.1588000e+02 </wgt>
<wgt id='1029'> +9.4051000e+01 </wgt>
<wgt id='1030'> +9.9330000e+01 </wgt>
<wgt id='1031'> +9.6478000e+01 </wgt>
<wgt id='1032'> +9.4996000e+01 </wgt>
<wgt id='1033'> +1.0326000e+02 </wgt>
<wgt id='1034'> +9.1649000e+01 </wgt>
<wgt id='1035'> +9.5849000e+01 </wgt>
<wgt id='1036'> +1.0299000e+02 </wgt>
<wgt id='1037'> +1.0475000e+02 </wgt>
<wgt id='1038'> +9.1148000e+01 </wgt>
<wgt id='1039'> +1.0522000e+02 </wgt>
<wgt id='1040'> +1.0254000e+02 </wgt>
<wgt id='1041'> +1.0300000e+02 </wgt>
<wgt id='1042'> +1.0353000e+02 </wgt>
<wgt id='1043'> +9.2498000e+01 </wgt>
<wgt id='1044'> +1.0183000e+02 </wgt>
<wgt id='1045'> +1.0587000e+02 </wgt>
<wgt id='1046'> +9.7509000e+01 </wgt>
<wgt id='1047'> +1.0460000e+02 </wgt>
<wgt id='1048'> +9.5698000e+01 </wgt>
<wgt id='1049'> +9.4116000e+01 </wgt>
<wgt id='1050'> +9.5207000e+01 </wgt>
<wgt id='1051'> +9.7784000e+01 </wgt>
<wgt id='1052'> +1.0091000e+02 </wgt>
<wgt id='1053'> +9.7656000e+01 </wgt>
<wgt id='1054'> +1.0720000e+02 </wgt>
<wgt id='1055'> +1.0311000e+02 </wgt>
<wgt id='1056'> +1.0552000e+02 </wgt>
<wgt id='1057'> +1.0508000e+02 </wgt>
<wgt id='1058'> +1.0150000e+02 </wgt>
<wgt id='1059'> +1.0058000e+02 </wgt>
<wgt id='1060'> +1.0023000e+02 </wgt>
<wgt id='1061'> +8.8654000e+01 </wgt>
<wgt id='1062'> +1.0079000e+02 </wgt>
<wgt id='1063'> +1.0279000e+02 </wgt>
<wgt id='1064'> +1.0344000e+02 </wgt>
<wgt id='1065'> +9.7252000e+01 </wgt>
<wgt id='1066'> +1.0240000e+02 </wgt>
<wgt id='1067'> +1.0349000e+02 </wgt>
<wgt id='1068'> +9.5718000e+01 </wgt>
<wgt id='1069'> +1.0178000e+02 </wgt>
<wgt id='1070'> +9.8911000e+01 </wgt>
<wgt id='1071'> +1.0464000e+02 </wgt>
<wgt id='1072'> +1.0090000e+02 </wgt>
<wgt id='1073'> +9.5587000e+01 </wgt>
<wgt id='1074'> +1.0927000e+02 </wgt>
<wgt id='1075'> +9.8634000e+01 </wgt>
<wgt id='1076'> +1.0519000e+02 </wgt>
<wgt id='1077'> +1.0596000e+02 </wgt>
<wgt id='1078'> +1.0125000e+02 </wgt>
<wgt id='1079'> +9.0299000e+01 </wgt>
<wgt id='1080'> +9.3346000e+01 </wgt>
<wgt id='1081'> +1.0152000e+02 </wgt>
<wgt id='1082'> +1.0057000e+02 </wgt>
<wgt id='1083'> +8.8560000e+01 </wgt>
<wgt id='1084'> +1.0260000e+02 </wgt>
<wgt id='1085'> +9.6605000e+01 </wgt>
<wgt id='1086'> +9.1094000e+01 </wgt>
<wgt id='1087'> +9.7680000e+01 </wgt>
<wgt id='1088'> +9.9624000e+01 </wgt>
<wgt id='1089'> +9.6312000e+01 </wgt>
<wgt id='1090'> +9.8623000e+01 </wgt>
<wgt id='1091'> +9.9424000e+01 </wgt>
<wgt id='1092'> +9.2905000e+01 </wgt>
<wgt id='1093'> +1.0563000e+02 </wgt>
<wgt id='1094'> +9.5401000e+01 </wgt>
<wgt id='1095'> +9.9318000e+01 </wgt>
<wgt id='1096'> +1.0047000e+02 </wgt>
<wgt id='1097'> +9.7297000e+01 </wgt>
<wgt id='1098'> +9.6242000e+01 </wgt>
<wgt id='1099'> +9.9903000e+01 </wgt>
<wgt id='1100'> +9.2754000e+01 </wgt>
<wgt id='1101'> +9.8751000e+01 </wgt>
<wgt id='1102'> +1.0103000e+02 </wgt>
<wgt id='1103'> +1.0456000e+02 </wgt>
<wgt id='1104'> +1.0029000e+02 </wgt>
<wgt id='1105'> +1.1127000e+02 </wgt>
<wgt id='1106'> +1.0176000e+02 </wgt>
<wgt id='1107'> +8.8917000e+01 </wgt>
<wgt id='1108'> +1.0585000e+02 </wgt>
<wgt id='1109'> +1.0324000e+02 </wgt>
<wgt id='1110'> +1.1284000e+02 </wgt>
<wgt id='1111'> +9.7212000e+01 </wgt>
<wgt id='1112'> +1.0387000e+02 </wgt>
<wgt id='rwgt_1'> +1.3654936e-02 </wgt>
<wgt id='rwgt_2'> +1.3654936e-02 </wgt>
<wgt id='rwgt_3'> +1.2289443e-01 </wgt>
<wgt id='rwgt_4'> +1.2289443e-01 </wgt>
<wgt id='rwgt_5'> +3.4137341e-01 </wgt>
<wgt id='rwgt_6'> +3.4137341e-01 </wgt>
<wgt id='rwgt_7'> +1.8807588e+00 </wgt>
<wgt id='rwgt_8'> +1.8807588e+00 </wgt>
<wgt id='rwgt_9'> +7.5230352e+00 </wgt>
<wgt id='rwgt_10'> +7.5230352e+00 </wgt>
<wgt id='rwgt_11'> +1.6926829e+01 </wgt>
<wgt id='rwgt_12'> +1.6926829e+01 </wgt>
<wgt id='rwgt_13'> +1.8807588e+00 </wgt>
<wgt id='rwgt_14'> +1.8807588e+00 </wgt>
<wgt id='rwgt_15'> +7.5230352e+00 </wgt>
<wgt id='rwgt_16'> +7.5230352e+00 </wgt>
<wgt id='rwgt_17'> +1.6926829e+01 </wgt>
<wgt id='rwgt_18'> +1.6926829e+01 </wgt>
<wgt id='rwgt_19'> +3.4956639e-02 </wgt>
<wgt id='rwgt_20'> +3.4956639e-02 </wgt>
<wgt id='rwgt_21'> +1.3982655e-01 </wgt>
<wgt id='rwgt_22'> +1.3982655e-01 </wgt>
<wgt id='rwgt_23'> +3.1460975e-01 </wgt>
<wgt id='rwgt_24'> +3.1460975e-01 </wgt>
<wgt id='rwgt_25'> +1.8807588e+00 </wgt>
<wgt id='rwgt_26'> +1.8807588e+00 </wgt>
<wgt id='rwgt_27'> +7.5230353e+00 </wgt>
<wgt id='rwgt_28'> +7.5230353e+00 </wgt>
<wgt id='rwgt_29'> +1.6926829e+01 </wgt>
<wgt id='rwgt_30'> +1.6926829e+01 </wgt>
<wgt id='rwgt_31'> +8.1678936e+00 </wgt>
<wgt id='rwgt_32'> +1.3654936e-02 </wgt>
<wgt id='rwgt_33'> +1.3654936e-02 </wgt>
<wgt id='rwgt_34'> +6.9054866e+00 </wgt>
<wgt id='rwgt_35'> +1.7887289e+01 </wgt>
<wgt id='rwgt_36'> +1.5788120e+00 </wgt>
<wgt id='rwgt_37'> +2.2100155e+00 </wgt>
<wgt id='rwgt_38'> +1.5993679e+01 </wgt>
<wgt id='rwgt_39'> +3.1368203e+01 </wgt>
<wgt id='rwgt_40'> +6.9054866e+00 </wgt>
<wgt id='rwgt_41'> +8.1678936e+00 </wgt>
<wgt id='rwgt_42'> +2.8843389e+01 </wgt>
<wgt id='rwgt_43'> +2.2100155e+00 </wgt>
<wgt id='rwgt_44'> +1.5788120e+00 </wgt>
<wgt id='rwgt_45'> +1.7887289e+01 </wgt>
<wgt id='rwgt_46'> +2.2100155e+00 </wgt>
<wgt id='rwgt_47'> +1.5788120e+00 </wgt>
<wgt id='rwgt_48'> +1.5993679e+01 </wgt>
<wgt id='rwgt_49'> +3.1368203e+01 </wgt>
<wgt id='rwgt_50'> +1.3654936e-02 </wgt>
<wgt id='rwgt_51'> +1.3654936e-02 </wgt>
<wgt id='rwgt_52'> +2.8843389e+01 </wgt>
<wgt id='rwgt_53'> +4.8610633e+01 </wgt>
<wgt id='rwgt_54'> +1.5788120e+00 </wgt>
<wgt id='rwgt_55'> +2.2100155e+00 </wgt>
<wgt id='rwgt_56'> +4.5454616e+01 </wgt>
<wgt id='rwgt_57'> +8.1678936e+00 </wgt>
<wgt id='rwgt_58'> +6.9054866e+00 </wgt>
<wgt id='rwgt_59'> +3.1368203e+01 </wgt>
<wgt id='rwgt_60'> +8.1678936e+00 </wgt>
<wgt id='rwgt_61'> +6.9054866e+00 </wgt>
<wgt id='rwgt_62'> +2.8843389e+01 </wgt>
<wgt id='rwgt_63'> +4.8610633e+01 </wgt>
<wgt id='rwgt_64'> +2.2100155e+00 </wgt>
<wgt id='rwgt_65'> +1.5788120e+00 </wgt>
<wgt id='rwgt_66'> +4.5454616e+01 </wgt>
<wgt id='rwgt_67'> +6.9614582e+01 </wgt>
<wgt id='rwgt_68'> +1.3654936e-02 </wgt>
<wgt id='rwgt_69'> +1.3654936e-02 </wgt>
<wgt id='rwgt_70'> +6.5827361e+01 </wgt>
<wgt id='rwgt_71'> +1.7887289e+01 </wgt>
<wgt id='rwgt_72'> +1.5993679e+01 </wgt>
<wgt id='rwgt_73'> +2.2100155e+00 </wgt>
<wgt id='rwgt_74'> +1.5788120e+00 </wgt>
<wgt id='rwgt_75'> +8.1678936e+00 </wgt>
<wgt id='rwgt_76'> +6.9054866e+00 </wgt>
<wgt id='rwgt_77'> +1.7887289e+01 </wgt>
<wgt id='rwgt_78'> +1.5993679e+01 </wgt>
<wgt id='rwgt_79'> +1.3654936e-02 </wgt>
<wgt id='rwgt_80'> +6.9054866e+00 </wgt>
<wgt id='rwgt_81'> +1.3654936e-02 </wgt>
<wgt id='rwgt_82'> +1.3654936e-02 </wgt>
<wgt id='rwgt_83'> +8.1678936e+00 </wgt>
<wgt id='rwgt_84'> +1.5993679e+01 </wgt>
<wgt id='rwgt_85'> +2.2100155e+00 </wgt>
<wgt id='rwgt_86'> +1.5788120e+00 </wgt>
<wgt id='rwgt_87'> +1.7887289e+01 </wgt>
<wgt id='rwgt_88'> +2.8843389e+01 </wgt>
<wgt id='rwgt_89'> +8.1678936e+00 </wgt>
<wgt id='rwgt_90'> +6.9054866e+00 </wgt>
<wgt id='rwgt_91'> +3.1368203e+01 </wgt>
<wgt id='rwgt_92'> +1.5788120e+00 </wgt>
<wgt id='rwgt_93'> +2.2100155e+00 </wgt>
<wgt id='rwgt_94'> +1.5993679e+01 </wgt>
<wgt id='rwgt_95'> +1.5788120e+00 </wgt>
<wgt id='rwgt_96'> +2.2100155e+00 </wgt>
<wgt id='rwgt_97'> +1.7887289e+01 </wgt>
<wgt id='rwgt_98'> +2.8843389e+01 </wgt>
<wgt id='rwgt_99'> +1.3654936e-02 </wgt>
<wgt id='rwgt_100'> +1.3654936e-02 </wgt>
<wgt id='rwgt_101'> +3.1368203e+01 </wgt>
<wgt id='rwgt_102'> +4.5454616e+01 </wgt>
<wgt id='rwgt_103'> +2.2100155e+00 </wgt>
<wgt id='rwgt_104'> +1.5788120e+00 </wgt>
<wgt id='rwgt_105'> +4.8610633e+01 </wgt>
<wgt id='rwgt_106'> +6.9054866e+00 </wgt>
<wgt id='rwgt_107'> +8.1678936e+00 </wgt>
<wgt id='rwgt_108'> +2.8843389e+01 </wgt>
<wgt id='rwgt_109'> +6.9054866e+00 </wgt>
<wgt id='rwgt_110'> +8.1678936e+00 </wgt>
<wgt id='rwgt_111'> +3.1368203e+01 </wgt>
<wgt id='rwgt_112'> +4.5454616e+01 </wgt>
<wgt id='rwgt_113'> +1.5788120e+00 </wgt>
<wgt id='rwgt_114'> +2.2100155e+00 </wgt>
<wgt id='rwgt_115'> +4.8610633e+01 </wgt>
<wgt id='rwgt_116'> +6.5827361e+01 </wgt>
<wgt id='rwgt_117'> +1.3654936e-02 </wgt>
<wgt id='rwgt_118'> +1.3654936e-02 </wgt>
<wgt id='rwgt_119'> +6.9614582e+01 </wgt>
<wgt id='rwgt_120'> +1.5993679e+01 </wgt>
<wgt id='rwgt_121'> +1.7887289e+01 </wgt>
<wgt id='rwgt_122'> +1.5788120e+00 </wgt>
<wgt id='rwgt_123'> +2.2100155e+00 </wgt>
<wgt id='rwgt_124'> +6.9054866e+00 </wgt>
<wgt id='rwgt_125'> +8.1678936e+00 </wgt>
<wgt id='rwgt_126'> +1.5993679e+01 </wgt>
<wgt id='rwgt_127'> +1.7887289e+01 </wgt>
<wgt id='rwgt_128'> +1.3654936e-02 </wgt>
<wgt id='rwgt_129'> +9.5395401e+00 </wgt>
<wgt id='rwgt_130'> +1.2289443e-01 </wgt>
<wgt id='rwgt_131'> +1.2289443e-01 </wgt>
<wgt id='rwgt_132'> +5.7523191e+00 </wgt>
<wgt id='rwgt_133'> +1.9890139e+01 </wgt>
<wgt id='rwgt_134'> +1.0568480e+00 </wgt>
<wgt id='rwgt_135'> +2.9504585e+00 </wgt>
<wgt id='rwgt_136'> +1.4209308e+01 </wgt>
<wgt id='rwgt_137'> +3.4002256e+01 </wgt>
<wgt id='rwgt_138'> +5.7523191e+00 </wgt>
<wgt id='rwgt_139'> +9.5395401e+00 </wgt>
<wgt id='rwgt_140'> +2.6427814e+01 </wgt>
<wgt id='rwgt_141'> +2.9504585e+00 </wgt>
<wgt id='rwgt_142'> +1.0568480e+00 </wgt>
<wgt id='rwgt_143'> +1.9890139e+01 </wgt>
<wgt id='rwgt_144'> +2.9504585e+00 </wgt>
<wgt id='rwgt_145'> +1.0568480e+00 </wgt>
<wgt id='rwgt_146'> +1.4209308e+01 </wgt>
<wgt id='rwgt_147'> +3.4002256e+01 </wgt>
<wgt id='rwgt_148'> +1.2289443e-01 </wgt>
<wgt id='rwgt_149'> +1.2289443e-01 </wgt>
<wgt id='rwgt_150'> +2.6427814e+01 </wgt>
<wgt id='rwgt_151'> +5.1875890e+01 </wgt>
<wgt id='rwgt_152'> +1.0568480e+00 </wgt>
<wgt id='rwgt_153'> +2.9504585e+00 </wgt>
<wgt id='rwgt_154'> +4.2407838e+01 </wgt>
<wgt id='rwgt_155'> +9.5395401e+00 </wgt>
<wgt id='rwgt_156'> +5.7523191e+00 </wgt>
<wgt id='rwgt_157'> +3.4002256e+01 </wgt>
<wgt id='rwgt_158'> +9.5395401e+00 </wgt>
<wgt id='rwgt_159'> +5.7523191e+00 </wgt>
<wgt id='rwgt_160'> +2.6427814e+01 </wgt>
<wgt id='rwgt_161'> +5.1875890e+01 </wgt>
<wgt id='rwgt_162'> +2.9504585e+00 </wgt>
<wgt id='rwgt_163'> +1.0568480e+00 </wgt>
<wgt id='rwgt_164'> +4.2407838e+01 </wgt>
<wgt id='rwgt_165'> +7.3511042e+01 </wgt>
<wgt id='rwgt_166'> +1.2289443e-01 </wgt>
<wgt id='rwgt_167'> +1.2289443e-01 </wgt>
<wgt id='rwgt_168'> +6.2149379e+01 </wgt>
<wgt id='rwgt_169'> +1.9890139e+01 </wgt>
<wgt id='rwgt_170'> +1.4209308e+01 </wgt>
<wgt id='rwgt_171'> +2.9504585e+00 </wgt>
<wgt id='rwgt_172'> +1.0568480e+00 </wgt>
<wgt id='rwgt_173'> +9.5395401e+00 </wgt>
<wgt id='rwgt_174'> +5.7523191e+00 </wgt>
<wgt id='rwgt_175'> +1.9890139e+01 </wgt>
<wgt id='rwgt_176'> +1.4209308e+01 </wgt>
<wgt id='rwgt_177'> +1.2289443e-01 </wgt>
<wgt id='rwgt_178'> +5.7523191e+00 </wgt>
<wgt id='rwgt_179'> +1.2289443e-01 </wgt>
<wgt id='rwgt_180'> +1.2289443e-01 </wgt>
<wgt id='rwgt_181'> +9.5395401e+00 </wgt>
<wgt id='rwgt_182'> +1.4209308e+01 </wgt>
<wgt id='rwgt_183'> +2.9504585e+00 </wgt>
<wgt id='rwgt_184'> +1.0568480e+00 </wgt>
<wgt id='rwgt_185'> +1.9890139e+01 </wgt>
<wgt id='rwgt_186'> +2.6427814e+01 </wgt>
<wgt id='rwgt_187'> +9.5395401e+00 </wgt>
<wgt id='rwgt_188'> +5.7523191e+00 </wgt>
<wgt id='rwgt_189'> +3.4002256e+01 </wgt>
<wgt id='rwgt_190'> +1.0568480e+00 </wgt>
<wgt id='rwgt_191'> +2.9504585e+00 </wgt>
<wgt id='rwgt_192'> +1.4209308e+01 </wgt>
<wgt id='rwgt_193'> +1.0568480e+00 </wgt>
<wgt id='rwgt_194'> +2.9504585e+00 </wgt>
<wgt id='rwgt_195'> +1.9890139e+01 </wgt>
<wgt id='rwgt_196'> +2.6427814e+01 </wgt>
<wgt id='rwgt_197'> +1.2289443e-01 </wgt>
<wgt id='rwgt_198'> +1.2289443e-01 </wgt>
<wgt id='rwgt_199'> +3.4002256e+01 </wgt>
<wgt id='rwgt_200'> +4.2407838e+01 </wgt>
<wgt id='rwgt_201'> +2.9504585e+00 </wgt>
<wgt id='rwgt_202'> +1.0568480e+00 </wgt>
<wgt id='rwgt_203'> +5.1875890e+01 </wgt>
<wgt id='rwgt_204'> +5.7523191e+00 </wgt>
<wgt id='rwgt_205'> +9.5395401e+00 </wgt>
<wgt id='rwgt_206'> +2.6427814e+01 </wgt>
<wgt id='rwgt_207'> +5.7523191e+00 </wgt>
<wgt id='rwgt_208'> +9.5395401e+00 </wgt>
<wgt id='rwgt_209'> +3.4002256e+01 </wgt>
<wgt id='rwgt_210'> +4.2407838e+01 </wgt>
<wgt id='rwgt_211'> +1.0568480e+00 </wgt>
<wgt id='rwgt_212'> +2.9504585e+00 </wgt>
<wgt id='rwgt_213'> +5.1875890e+01 </wgt>
<wgt id='rwgt_214'> +6.2149379e+01 </wgt>
<wgt id='rwgt_215'> +1.2289443e-01 </wgt>
<wgt id='rwgt_216'> +1.2289443e-01 </wgt>
<wgt id='rwgt_217'> +7.3511042e+01 </wgt>
<wgt id='rwgt_218'> +1.4209308e+01 </wgt>
<wgt id='rwgt_219'> +1.9890139e+01 </wgt>
<wgt id='rwgt_220'> +1.0568480e+00 </wgt>
<wgt id='rwgt_221'> +2.9504585e+00 </wgt>
<wgt id='rwgt_222'> +5.7523191e+00 </wgt>
<wgt id='rwgt_223'> +9.5395401e+00 </wgt>
<wgt id='rwgt_224'> +1.4209308e+01 </wgt>
<wgt id='rwgt_225'> +1.9890139e+01 </wgt>
<wgt id='rwgt_226'> +1.2289443e-01 </wgt>
<wgt id='rwgt_227'> +1.1020426e+01 </wgt>
<wgt id='rwgt_228'> +3.4137341e-01 </wgt>
<wgt id='rwgt_229'> +3.4137341e-01 </wgt>
<wgt id='rwgt_230'> +4.7083911e+00 </wgt>
<wgt id='rwgt_231'> +2.2002229e+01 </wgt>
<wgt id='rwgt_232'> +6.4412346e-01 </wgt>
<wgt id='rwgt_233'> +3.8001409e+00 </wgt>
<wgt id='rwgt_234'> +1.2534176e+01 </wgt>
<wgt id='rwgt_235'> +3.6745549e+01 </wgt>
<wgt id='rwgt_236'> +4.7083911e+00 </wgt>
<wgt id='rwgt_237'> +1.1020426e+01 </wgt>
<wgt id='rwgt_238'> +2.4121479e+01 </wgt>
<wgt id='rwgt_239'> +3.8001409e+00 </wgt>
<wgt id='rwgt_240'> +6.4412346e-01 </wgt>
<wgt id='rwgt_241'> +2.2002229e+01 </wgt>
<wgt id='rwgt_242'> +3.8001409e+00 </wgt>
<wgt id='rwgt_243'> +6.4412346e-01 </wgt>
<wgt id='rwgt_244'> +1.2534176e+01 </wgt>
<wgt id='rwgt_245'> +3.6745549e+01 </wgt>
<wgt id='rwgt_246'> +3.4137341e-01 </wgt>
<wgt id='rwgt_247'> +3.4137341e-01 </wgt>
<wgt id='rwgt_248'> +2.4121479e+01 </wgt>
<wgt id='rwgt_249'> +5.5250387e+01 </wgt>
<wgt id='rwgt_250'> +6.4412346e-01 </wgt>
<wgt id='rwgt_251'> +3.8001409e+00 </wgt>
<wgt id='rwgt_252'> +3.9470299e+01 </wgt>
<wgt id='rwgt_253'> +1.1020426e+01 </wgt>
<wgt id='rwgt_254'> +4.7083911e+00 </wgt>
<wgt id='rwgt_255'> +3.6745549e+01 </wgt>
<wgt id='rwgt_256'> +1.1020426e+01 </wgt>
<wgt id='rwgt_257'> +4.7083911e+00 </wgt>
<wgt id='rwgt_258'> +2.4121479e+01 </wgt>
<wgt id='rwgt_259'> +5.5250387e+01 </wgt>
<wgt id='rwgt_260'> +3.8001409e+00 </wgt>
<wgt id='rwgt_261'> +6.4412346e-01 </wgt>
<wgt id='rwgt_262'> +3.9470299e+01 </wgt>
<wgt id='rwgt_263'> +7.7516742e+01 </wgt>
<wgt id='rwgt_264'> +3.4137341e-01 </wgt>
<wgt id='rwgt_265'> +3.4137341e-01 </wgt>
<wgt id='rwgt_266'> +5.8580637e+01 </wgt>
<wgt id='rwgt_267'> +2.2002229e+01 </wgt>
<wgt id='rwgt_268'> +1.2534176e+01 </wgt>
<wgt id='rwgt_269'> +3.8001409e+00 </wgt>
<wgt id='rwgt_270'> +6.4412346e-01 </wgt>
<wgt id='rwgt_271'> +1.1020426e+01 </wgt>
<wgt id='rwgt_272'> +4.7083911e+00 </wgt>
<wgt id='rwgt_273'> +2.2002229e+01 </wgt>
<wgt id='rwgt_274'> +1.2534176e+01 </wgt>
<wgt id='rwgt_275'> +3.4137341e-01 </wgt>
<wgt id='rwgt_276'> +4.7083911e+00 </wgt>
<wgt id='rwgt_277'> +3.4137341e-01 </wgt>
<wgt id='rwgt_278'> +3.4137341e-01 </wgt>
<wgt id='rwgt_279'> +1.1020426e+01 </wgt>
<wgt id='rwgt_280'> +1.2534176e+01 </wgt>
<wgt id='rwgt_281'> +3.8001409e+00 </wgt>
<wgt id='rwgt_282'> +6.4412346e-01 </wgt>
<wgt id='rwgt_283'> +2.2002229e+01 </wgt>
<wgt id='rwgt_284'> +2.4121479e+01 </wgt>
<wgt id='rwgt_285'> +1.1020426e+01 </wgt>
<wgt id='rwgt_286'> +4.7083911e+00 </wgt>
<wgt id='rwgt_287'> +3.6745549e+01 </wgt>
<wgt id='rwgt_288'> +6.4412346e-01 </wgt>
<wgt id='rwgt_289'> +3.8001409e+00 </wgt>
<wgt id='rwgt_290'> +1.2534176e+01 </wgt>
<wgt id='rwgt_291'> +6.4412346e-01 </wgt>
<wgt id='rwgt_292'> +3.8001409e+00 </wgt>
<wgt id='rwgt_293'> +2.2002229e+01 </wgt>
<wgt id='rwgt_294'> +2.4121479e+01 </wgt>
<wgt id='rwgt_295'> +3.4137341e-01 </wgt>
<wgt id='rwgt_296'> +3.4137341e-01 </wgt>
<wgt id='rwgt_297'> +3.6745549e+01 </wgt>
<wgt id='rwgt_298'> +3.9470299e+01 </wgt>
<wgt id='rwgt_299'> +3.8001409e+00 </wgt>
<wgt id='rwgt_300'> +6.4412346e-01 </wgt>
<wgt id='rwgt_301'> +5.5250387e+01 </wgt>
<wgt id='rwgt_302'> +4.7083911e+00 </wgt>
<wgt id='rwgt_303'> +1.1020426e+01 </wgt>
<wgt id='rwgt_304'> +2.4121479e+01 </wgt>
<wgt id='rwgt_305'> +4.7083911e+00 </wgt>
<wgt id='rwgt_306'> +1.1020426e+01 </wgt>
<wgt id='rwgt_307'> +3.6745549e+01 </wgt>
<wgt id='rwgt_308'> +3.9470299e+01 </wgt>
<wgt id='rwgt_309'> +6.4412346e-01 </wgt>
<wgt id='rwgt_310'> +3.8001409e+00 </wgt>
<wgt id='rwgt_311'> +5.5250387e+01 </wgt>
<wgt id='rwgt_312'> +5.8580637e+01 </wgt>
<wgt id='rwgt_313'> +3.4137341e-01 </wgt>
<wgt id='rwgt_314'> +3.4137341e-01 </wgt>
<wgt id='rwgt_315'> +7.7516742e+01 </wgt>
<wgt id='rwgt_316'> +1.2534176e+01 </wgt>
<wgt id='rwgt_317'> +2.2002229e+01 </wgt>
<wgt id='rwgt_318'> +6.4412346e-01 </wgt>
<wgt id='rwgt_319'> +3.8001409e+00 </wgt>
<wgt id='rwgt_320'> +4.7083911e+00 </wgt>
<wgt id='rwgt_321'> +1.1020426e+01 </wgt>
<wgt id='rwgt_322'> +1.2534176e+01 </wgt>
<wgt id='rwgt_323'> +2.2002229e+01 </wgt>
<wgt id='rwgt_324'> +3.4137341e-01 </wgt>
<wgt id='rwgt_325'> +7.5230352e+00 </wgt>
<wgt id='rwgt_326'> +0.0000000e+00 </wgt>
<wgt id='rwgt_327'> +0.0000000e+00 </wgt>
<wgt id='rwgt_328'> +7.5230352e+00 </wgt>
<wgt id='rwgt_329'> +1.6926829e+01 </wgt>
<wgt id='rwgt_330'> +1.8807588e+00 </wgt>
<wgt id='rwgt_331'> +1.8807588e+00 </wgt>
<wgt id='rwgt_332'> +1.6926829e+01 </wgt>
<wgt id='rwgt_333'> +3.0092141e+01 </wgt>
<wgt id='rwgt_334'> +7.5230352e+00 </wgt>
<wgt id='rwgt_335'> +7.5230352e+00 </wgt>
<wgt id='rwgt_336'> +3.0092141e+01 </wgt>
<wgt id='rwgt_337'> +1.8807588e+00 </wgt>
<wgt id='rwgt_338'> +1.8807588e+00 </wgt>
<wgt id='rwgt_339'> +1.6926829e+01 </wgt>
<wgt id='rwgt_340'> +1.8807588e+00 </wgt>
<wgt id='rwgt_341'> +1.8807588e+00 </wgt>
<wgt id='rwgt_342'> +1.6926829e+01 </wgt>
<wgt id='rwgt_343'> +3.0092141e+01 </wgt>
<wgt id='rwgt_344'> +0.0000000e+00 </wgt>
<wgt id='rwgt_345'> +0.0000000e+00 </wgt>
<wgt id='rwgt_346'> +3.0092141e+01 </wgt>
<wgt id='rwgt_347'> +4.7018970e+01 </wgt>
<wgt id='rwgt_348'> +1.8807588e+00 </wgt>
<wgt id='rwgt_349'> +1.8807588e+00 </wgt>
<wgt id='rwgt_350'> +4.7018970e+01 </wgt>
<wgt id='rwgt_351'> +7.5230352e+00 </wgt>
<wgt id='rwgt_352'> +7.5230352e+00 </wgt>
<wgt id='rwgt_353'> +3.0092141e+01 </wgt>
<wgt id='rwgt_354'> +7.5230352e+00 </wgt>
<wgt id='rwgt_355'> +7.5230352e+00 </wgt>
<wgt id='rwgt_356'> +3.0092141e+01 </wgt>
<wgt id='rwgt_357'> +4.7018970e+01 </wgt>
<wgt id='rwgt_358'> +1.8807588e+00 </wgt>
<wgt id='rwgt_359'> +1.8807588e+00 </wgt>
<wgt id='rwgt_360'> +4.7018970e+01 </wgt>
<wgt id='rwgt_361'> +6.7707316e+01 </wgt>
<wgt id='rwgt_362'> +0.0000000e+00 </wgt>
<wgt id='rwgt_363'> +0.0000000e+00 </wgt>
<wgt id='rwgt_364'> +6.7707316e+01 </wgt>
<wgt id='rwgt_365'> +1.6926829e+01 </wgt>
<wgt id='rwgt_366'> +1.6926829e+01 </wgt>
<wgt id='rwgt_367'> +1.8807588e+00 </wgt>
<wgt id='rwgt_368'> +1.8807588e+00 </wgt>
<wgt id='rwgt_369'> +7.5230352e+00 </wgt>
<wgt id='rwgt_370'> +7.5230352e+00 </wgt>
<wgt id='rwgt_371'> +1.6926829e+01 </wgt>
<wgt id='rwgt_372'> +1.6926829e+01 </wgt>
<wgt id='rwgt_373'> +0.0000000e+00 </wgt>
</rwgt>
</event>
<event npLO=" -1 " npNLO=" 1 ">
 7      1 +9.9972252e+01 1.69440420e+02 7.54677110e-03 1.10164820e-01
        1 -1    0    0  502    0 +0.0000000000e+00 +0.0000000000e+00 +7.9685087000e+02 7.9685087000e+02 0.0000000000e+00 0.0000e+00 9.0000e+00
       -2 -1    0    0    0  501 +0.0000000000e+00 +0.0000000000e+00 -1.5217833000e+02 1.5217833000e+02 0.0000000000e+00 0.0000e+00 9.0000e+00
      -24  2    1    2    0    0 -3.2518534000e+01 -2.0737161000e+02 +3.7968598000e+02 4.4117727000e+02 8.0096849000e+01 0.0000e+00 0.0000e+00
       13  1    3    3    0    0 -5.0181353000e+01 -1.9714678000e+02 +3.3296402000e+02 3.9019233000e+02 0.0000000000e+00 0.0000e+00 9.0000e+00
      -14  1    3    3    0    0 +1.7662820000e+01 -1.0224828000e+01 +4.6721963000e+01 5.0984941000e+01 0.0000000000e+00 0.0000e+00 9.0000e+00
       22  1    1    2    0    0 -1.1290123000e+02 +1.2040525000e+02 +2.9282416000e+02 3.3614000000e+02 0.0000000000e+00 0.0000e+00 9.0000e+00
       21  1    1    2  502  501 +1.4541977000e+02 +8.6966357000e+01 -2.7837600000e+01 1.7171193000e+02 0.0000000000e+00 0.0000e+00 9.0000e+00
#aMCatNLO 1  0  0  2  6 0.11490760E+00 0.00000000E+00 -9  7  0 0.00000000E+00 0.00000000E+00 0.00000000E+00 0.00000000E+00 0.00000000E+00
<rwgt>
<wgt id='1001'> +9.9973000e+01 </wgt>
<wgt id='1002'> +1.0133000e+02 </wgt>
<wgt id='1003'> +9.5796000e+01 </wgt>
<wgt id='1004'> +9.7224000e+01 </wgt>
<wgt id='1005'> +9.8696000e+01 </wgt>
<wgt id='1006'> +9.2945000e+01 </wgt>
<wgt id='1007'> +1.0250000e+02 </wgt>
<wgt id='1008'> +1.0375000e+02 </wgt>
<wgt id='1009'> +9.8444000e+01 </wgt>
<wgt id='1010'> +9.9973000e+01 </wgt>
<wgt id='1011'> +9.4543000e+01 </wgt>
<wgt id='1012'> +9.9190000e+01 </wgt>
<wgt id='1013'> +1.0096000e+02 </wgt>
<wgt id='1014'> +1.0406000e+02 </wgt>
<wgt id='1015'> +9.6011000e+01 </wgt>
<wgt id='1016'> +9.7187000e+01 </wgt>
<wgt id='1017'> +1.0358000e+02 </wgt>
<wgt id='1018'> +1.0305000e+02 </wgt>
<wgt id='1019'> +1.0027000e+02 </wgt>
<wgt id='1020'> +1.0396000e+02 </wgt>
<wgt id='1021'> +9.9113000e+01 </wgt>
<wgt id='1022'> +9.8619000e+01 </wgt>
<wgt id='1023'> +9.8837000e+01 </wgt>
<wgt id='1024'> +9.9442000e+01 </wgt>
<wgt id='1025'> +9.9080000e+01 </wgt>
<wgt id='1026'> +1.0011000e+02 </wgt>
<wgt id='1027'> +9.6336000e+01 </wgt>
<wgt id='1028'> +9.0985000e+01 </wgt>
<wgt id='1029'> +9.9199000e+01 </wgt>
<wgt id='1030'> +1.0550000e+02 </wgt>
<wgt id='1031'> +1.0315000e+02 </wgt>
<wgt id='1032'> +1.0461000e+02 </wgt>
<wgt id='1033'> +1.0216000e+02 </wgt>
<wgt id='1034'> +1.0187000e+02 </wgt>
<wgt id='1035'> +9.9110000e+01 </wgt>
<wgt id='1036'> +9.9854000e+01 </wgt>
<wgt id='1037'> +9.6705000e+01 </wgt>
<wgt id='1038'> +9.8302000e+01 </wgt>
<wgt id='1039'> +1.0008000e+02 </wgt>
<wgt id='1040'> +1.0163000e+02 </wgt>
<wgt id='1041'> +1.0381000e+02 </wgt>
<wgt id='1042'> +1.0385000e+02 </wgt>
<wgt id='1043'> +1.0414000e+02 </wgt>
<wgt id='1044'> +9.9743000e+01 </wgt>
<wgt id='1045'> +1.0453000e+02 </wgt>
<wgt id='1046'> +9.9556000e+01 </wgt>
<wgt id='1047'> +9.7740000e+01 </wgt>
<wgt id='1048'> +9.9642000e+01 </wgt>
<wgt id='1049'> +9.7381000e+01 </wgt>
<wgt id='1050'> +1.0164000e+02 </wgt>
<wgt id='1051'> +9.8886000e+01 </wgt>
<wgt id='1052'> +9.9261000e+01 </wgt>
<wgt id='1053'> +1.0182000e+02 </wgt>
<wgt id='1054'> +9.9571000e+01 </wgt>
<wgt id='1055'> +1.0185000e+02 </wgt>
<wgt id='1056'> +9.5022000e+01 </wgt>
<wgt id='1057'> +9.8950000e+01 </wgt>
<wgt id='1058'> +9.9175000e+01 </wgt>
<wgt id='1059'> +1.0273000e+02 </wgt>
<wgt id='1060'> +1.0122000e+02 </wgt>
<wgt id='1061'> +1.0196000e+02 </wgt>
<wgt id='1062'> +1.0083000e+02 </wgt>
<wgt id='1063'> +1.0005000e+02 </wgt>
<wgt id='1064'> +1.0076000e+02 </wgt>
<wgt id='1065'> +1.0044000e+02 </wgt>
<wgt id='1066'> +9.4309000e+01 </wgt>
<wgt id='1067'> +9.6665000e+01 </wgt>
<wgt id='1068'> +9.9261000e+01 </wgt>
<wgt id='1069'> +9.8782000e+01 </wgt>
<wgt id='1070'> +1.0358000e+02 </wgt>
<wgt id='1071'> +9.5725000e+01 </wgt>
<wgt id='1072'> +9.8373000e+01 </wgt>
<wgt id='1073'> +9.4917000e+01 </wgt>
<wgt id='1074'> +8.9192000e+01 </wgt>
<wgt id='1075'> +1.0223000e+02 </wgt>
<wgt id='1076'> +9.9706000e+01 </wgt>
<wgt id='1077'> +1.1203000e+02 </wgt>
<wgt id='1078'> +9.8778000e+01 </wgt>
<wgt id='1079'> +1.0313000e+02 </wgt>
<wgt id='1080'> +1.0155000e+02 </wgt>
<wgt id='1081'> +1.0088000e+02 </wgt>
<wgt id='1082'> +9.9285000e+01 </wgt>
<wgt id='1083'> +1.0055000e+02 </wgt>
<wgt id='1084'> +1.0150000e+02 </wgt>
<wgt id='1085'> +9.7461000e+01 </wgt>
<wgt id='1086'> +1.0585000e+02 </wgt>
<wgt id='1087'> +9.9596000e+01 </wgt>
<wgt id='1088'> +1.0083000e+02 </wgt>
<wgt id='1089'> +9.9497000e+01 </wgt>
<wgt id='1090'> +1.0321000e+02 </wgt>
<wgt id='1091'> +1.0224000e+02 </wgt>
<wgt id='1092'> +1.0395000e+02 </wgt>
<wgt id='1093'> +9.9537000e+01 </wgt>
<wgt id='1094'> +1.0029000e+02 </wgt>
<wgt id='1095'> +9.9209000e+01 </wgt>
<wgt id='1096'> +9.7802000e+01 </wgt>
<wgt id='1097'> +1.0058000e+02 </wgt>
<wgt id='1098'> +9.8821000e+01 </wgt>
<wgt id='1099'> +9.5372000e+01 </wgt>
<wgt id='1100'> +1.0115000e+02 </wgt>
<wgt id='1101'> +1.0297000e+02 </wgt>
<wgt id='1102'> +1.0562000e+02 </wgt>
<wgt id='1103'> +9.8281000e+01 </wgt>
<wgt id='1104'> +9.8474000e+01 </wgt>
<wgt id='1105'> +9.2312000e+01 </wgt>
<wgt id='1106'> +1.0179000e+02 </wgt>
<wgt id='1107'> +9.7952000e+01 </wgt>
<wgt id='1108'> +1.0095000e+02 </wgt>
<wgt id='1109'> +9.8818000e+01 </wgt>
<wgt id='1110'> +9.3338000e+01 </wgt>
<wgt id='1111'> +9.9488000e+01 </wgt>
<wgt id='1112'> +1.0021000e+02 </wgt>
<wgt id='rwgt_1'> +3.6519415e-01 </wgt>
<wgt id='rwgt_2'> +3.6519415e-01 </wgt>
<wgt id='rwgt_3'> +3.2867474e+00 </wgt>
<wgt id='rwgt_4'> +3.2867474e+00 </wgt>
<wgt id='rwgt_5'> +9.1298538e+00 </wgt>
<wgt id='rwgt_6'> +9.1298538e+00 </wgt>
<wgt id='rwgt_7'> +9.5941645e-01 </wgt>
<wgt id='rwgt_8'> +9.5941645e-01 </wgt>
<wgt id='rwgt_9'> +3.8376658e+00 </wgt>
<wgt id='rwgt_10'> +3.8376658e+00 </wgt>
<wgt id='rwgt_11'> +8.6347480e+00 </wgt>
<wgt id='rwgt_12'> +8.6347480e+00 </wgt>
<wgt id='rwgt_13'> +9.5941645e-01 </wgt>
<wgt id='rwgt_14'> +9.5941645e-01 </wgt>
<wgt id='rwgt_15'> +3.8376658e+00 </wgt>
<wgt id='rwgt_16'> +3.8376658e+00 </wgt>
<wgt id='rwgt_17'> +8.6347480e+00 </wgt>
<wgt id='rwgt_18'> +8.6347480e+00 </wgt>
<wgt id='rwgt_19'> +9.3489702e-01 </wgt>
<wgt id='rwgt_20'> +9.3489702e-01 </wgt>
<wgt id='rwgt_21'> +3.7395881e+00 </wgt>
<wgt id='rwgt_22'> +3.7395881e+00 </wgt>
<wgt id='rwgt_23'> +8.4140732e+00 </wgt>
<wgt id='rwgt_24'> +8.4140732e+00 </wgt>
<wgt id='rwgt_25'> +9.5941645e-01 </wgt>
<wgt id='rwgt_26'> +9.5941645e-01 </wgt>
<wgt id='rwgt_27'> +3.8376658e+00 </wgt>
<wgt id='rwgt_28'> +3.8376658e+00 </wgt>
<wgt id='rwgt_29'> +8.6347481e+00 </wgt>
<wgt id='rwgt_30'> +8.6347481e+00 </wgt>
<wgt id='rwgt_31'> +5.5346568e+00 </wgt>
<wgt id='rwgt_32'> +3.6519415e-01 </wgt>
<wgt id='rwgt_33'> +3.6519415e-01 </wgt>
<wgt id='rwgt_34'> +2.8710631e+00 </wgt>
<wgt id='rwgt_35'> +1.0997637e+01 </wgt>
<wgt id='rwgt_36'> +6.5871220e-01 </wgt>
<wgt id='rwgt_37'> +1.9905090e+00 </wgt>
<wgt id='rwgt_38'> +7.0022470e+00 </wgt>
<wgt id='rwgt_39'> +1.8379451e+01 </wgt>
<wgt id='rwgt_40'> +2.8710631e+00 </wgt>
<wgt id='rwgt_41'> +5.5346568e+00 </wgt>
<wgt id='rwgt_42'> +1.3052264e+01 </wgt>
<wgt id='rwgt_43'> +1.9905090e+00 </wgt>
<wgt id='rwgt_44'> +6.5871220e-01 </wgt>
<wgt id='rwgt_45'> +1.0997637e+01 </wgt>
<wgt id='rwgt_46'> +1.9905090e+00 </wgt>
<wgt id='rwgt_47'> +6.5871220e-01 </wgt>
<wgt id='rwgt_48'> +7.0022470e+00 </wgt>
<wgt id='rwgt_49'> +1.8379451e+01 </wgt>
<wgt id='rwgt_50'> +3.6519415e-01 </wgt>
<wgt id='rwgt_51'> +3.6519415e-01 </wgt>
<wgt id='rwgt_52'> +1.3052264e+01 </wgt>
<wgt id='rwgt_53'> +2.7680097e+01 </wgt>
<wgt id='rwgt_54'> +6.5871220e-01 </wgt>
<wgt id='rwgt_55'> +1.9905090e+00 </wgt>
<wgt id='rwgt_56'> +2.1021113e+01 </wgt>
<wgt id='rwgt_57'> +5.5346568e+00 </wgt>
<wgt id='rwgt_58'> +2.8710631e+00 </wgt>
<wgt id='rwgt_59'> +1.8379451e+01 </wgt>
<wgt id='rwgt_60'> +5.5346568e+00 </wgt>
<wgt id='rwgt_61'> +2.8710631e+00 </wgt>
<wgt id='rwgt_62'> +1.3052264e+01 </wgt>
<wgt id='rwgt_63'> +2.7680097e+01 </wgt>
<wgt id='rwgt_64'> +1.9905090e+00 </wgt>
<wgt id='rwgt_65'> +6.5871220e-01 </wgt>
<wgt id='rwgt_66'> +2.1021113e+01 </wgt>
<wgt id='rwgt_67'> +3.8899577e+01 </wgt>
<wgt id='rwgt_68'> +3.6519415e-01 </wgt>
<wgt id='rwgt_69'> +3.6519415e-01 </wgt>
<wgt id='rwgt_70'> +3.0908796e+01 </wgt>
<wgt id='rwgt_71'> +1.0997637e+01 </wgt>
<wgt id='rwgt_72'> +7.0022470e+00 </wgt>
<wgt id='rwgt_73'> +1.9905090e+00 </wgt>
<wgt id='rwgt_74'> +6.5871220e-01 </wgt>
<wgt id='rwgt_75'> +5.5346568e+00 </wgt>
<wgt id='rwgt_76'> +2.8710631e+00 </wgt>
<wgt id='rwgt_77'> +1.0997637e+01 </wgt>
<wgt id='rwgt_78'> +7.0022470e+00 </wgt>
<wgt id='rwgt_79'> +3.6519415e-01 </wgt>
<wgt id='rwgt_80'> +2.8710631e+00 </wgt>
<wgt id='rwgt_81'> +3.6519415e-01 </wgt>
<wgt id='rwgt_82'> +3.6519415e-01 </wgt>
<wgt id='rwgt_83'> +5.5346568e+00 </wgt>
<wgt id='rwgt_84'> +7.0022470e+00 </wgt>
<wgt id='rwgt_85'> +1.9905090e+00 </wgt>
<wgt id='rwgt_86'> +6.5871220e-01 </wgt>
<wgt id='rwgt_87'> +1.0997637e+01 </wgt>
<wgt id='rwgt_88'> +1.3052264e+01 </wgt>
<wgt id='rwgt_89'> +5.5346568e+00 </wgt>
<wgt id='rwgt_90'> +2.8710631e+00 </wgt>
<wgt id='rwgt_91'> +1.8379451e+01 </wgt>
<wgt id='rwgt_92'> +6.5871220e-01 </wgt>
<wgt id='rwgt_93'> +1.9905090e+00 </wgt>
<wgt id='rwgt_94'> +7.0022470e+00 </wgt>
<wgt id='rwgt_95'> +6.5871220e-01 </wgt>
<wgt id='rwgt_96'> +1.9905090e+00 </wgt>
<wgt id='rwgt_97'> +1.0997637e+01 </wgt>
<wgt id='rwgt_98'> +1.3052264e+01 </wgt>
<wgt id='rwgt_99'> +3.6519415e-01 </wgt>
<wgt id='rwgt_100'> +3.6519415e-01 </wgt>
<wgt id='rwgt_101'> +1.8379451e+01 </wgt>
<wgt id='rwgt_102'> +2.1021113e+01 </wgt>
<wgt id='rwgt_103'> +1.9905090e+00 </wgt>
<wgt id='rwgt_104'> +6.5871220e-01 </wgt>
<wgt id='rwgt_105'> +2.7680097e+01 </wgt>
<wgt id='rwgt_106'> +2.8710631e+00 </wgt>
<wgt id='rwgt_107'> +5.5346568e+00 </wgt>
<wgt id='rwgt_108'> +1.3052264e+01 </wgt>
<wgt id='rwgt_109'> +2.8710631e+00 </wgt>
<wgt id='rwgt_110'> +5.5346568e+00 </wgt>
<wgt id='rwgt_111'> +1.8379451e+01 </wgt>
<wgt id='rwgt_112'> +2.1021113e+01 </wgt>
<wgt id='rwgt_113'> +6.5871220e-01 </wgt>
<wgt id='rwgt_114'> +1.9905090e+00 </wgt>
<wgt id='rwgt_115'> +2.7680097e+01 </wgt>
<wgt id='rwgt_116'> +3.0908796e+01 </wgt>
<wgt id='rwgt_117'> +3.6519415e-01 </wgt>
<wgt id='rwgt_118'> +3.6519415e-01 </wgt>
<wgt id='rwgt_119'> +3.8899577e+01 </wgt>
<wgt id='rwgt_120'> +7.0022470e+00 </wgt>
<wgt id='rwgt_121'> +1.0997637e+01 </wgt>
<wgt id='rwgt_122'> +6.5871220e-01 </wgt>
<wgt id='rwgt_123'> +1.9905090e+00 </wgt>
<wgt id='rwgt_124'> +2.8710631e+00 </wgt>
<wgt id='rwgt_125'> +5.5346568e+00 </wgt>
<wgt id='rwgt_126'> +7.0022470e+00 </wgt>
<wgt id='rwgt_127'> +1.0997637e+01 </wgt>
<wgt id='rwgt_128'> +3.6519415e-01 </wgt>
<wgt id='rwgt_129'> +1.1119804e+01 </wgt>
<wgt id='rwgt_130'> +3.2867474e+00 </wgt>
<wgt id='rwgt_131'> +3.2867474e+00 </wgt>
<wgt id='rwgt_132'> +3.1290227e+00 </wgt>
<wgt id='rwgt_133'> +1.7914581e+01 </wgt>
<wgt id='rwgt_134'> +2.2484686e+00 </wgt>
<wgt id='rwgt_135'> +6.2438590e+00 </wgt>
<wgt id='rwgt_136'> +5.9284098e+00 </wgt>
<wgt id='rwgt_137'> +2.6628191e+01 </wgt>
<wgt id='rwgt_138'> +3.1290227e+00 </wgt>
<wgt id='rwgt_139'> +1.1119804e+01 </wgt>
<wgt id='rwgt_140'> +1.0646630e+01 </wgt>
<wgt id='rwgt_141'> +6.2438590e+00 </wgt>
<wgt id='rwgt_142'> +2.2484686e+00 </wgt>
<wgt id='rwgt_143'> +1.7914581e+01 </wgt>
<wgt id='rwgt_144'> +6.2438590e+00 </wgt>
<wgt id='rwgt_145'> +2.2484686e+00 </wgt>
<wgt id='rwgt_146'> +5.9284098e+00 </wgt>
<wgt id='rwgt_147'> +2.6628191e+01 </wgt>
<wgt id='rwgt_148'> +3.2867474e+00 </wgt>
<wgt id='rwgt_149'> +3.2867474e+00 </wgt>
<wgt id='rwgt_150'> +1.0646630e+01 </wgt>
<wgt id='rwgt_151'> +3.7260635e+01 </wgt>
<wgt id='rwgt_152'> +2.2484686e+00 </wgt>
<wgt id='rwgt_153'> +6.2438590e+00 </wgt>
<wgt id='rwgt_154'> +1.7283683e+01 </wgt>
<wgt id='rwgt_155'> +1.1119804e+01 </wgt>
<wgt id='rwgt_156'> +3.1290227e+00 </wgt>
<wgt id='rwgt_157'> +2.6628191e+01 </wgt>
<wgt id='rwgt_158'> +1.1119804e+01 </wgt>
<wgt id='rwgt_159'> +3.1290227e+00 </wgt>
<wgt id='rwgt_160'> +1.0646630e+01 </wgt>
<wgt id='rwgt_161'> +3.7260635e+01 </wgt>
<wgt id='rwgt_162'> +6.2438590e+00 </wgt>
<wgt id='rwgt_163'> +2.2484686e+00 </wgt>
<wgt id='rwgt_164'> +1.7283683e+01 </wgt>
<wgt id='rwgt_165'> +4.9811911e+01 </wgt>
<wgt id='rwgt_166'> +3.2867474e+00 </wgt>
<wgt id='rwgt_167'> +3.2867474e+00 </wgt>
<wgt id='rwgt_168'> +2.5839568e+01 </wgt>
<wgt id='rwgt_169'> +1.7914581e+01 </wgt>
<wgt id='rwgt_170'> +5.9284098e+00 </wgt>
<wgt id='rwgt_171'> +6.2438590e+00 </wgt>
<wgt id='rwgt_172'> +2.2484686e+00 </wgt>
<wgt id='rwgt_173'> +1.1119804e+01 </wgt>
<wgt id='rwgt_174'> +3.1290227e+00 </wgt>
<wgt id='rwgt_175'> +1.7914581e+01 </wgt>
<wgt id='rwgt_176'> +5.9284098e+00 </wgt>
<wgt id='rwgt_177'> +3.2867474e+00 </wgt>
<wgt id='rwgt_178'> +3.1290227e+00 </wgt>
<wgt id='rwgt_179'> +3.2867474e+00 </wgt>
<wgt id='rwgt_180'> +3.2867474e+00 </wgt>
<wgt id='rwgt_181'> +1.1119804e+01 </wgt>
<wgt id='rwgt_182'> +5.9284098e+00 </wgt>
<wgt id='rwgt_183'> +6.2438590e+00 </wgt>
<wgt id='rwgt_184'> +2.2484686e+00 </wgt>
<wgt id='rwgt_185'> +1.7914581e+01 </wgt>
<wgt id='rwgt_186'> +1.0646630e+01 </wgt>
<wgt id='rwgt_187'> +1.1119804e+01 </wgt>
<wgt id='rwgt_188'> +3.1290227e+00 </wgt>
<wgt id='rwgt_189'> +2.6628191e+01 </wgt>
<wgt id='rwgt_190'> +2.2484686e+00 </wgt>
<wgt id='rwgt_191'> +6.2438590e+00 </wgt>
<wgt id='rwgt_192'> +5.9284098e+00 </wgt>
<wgt id='rwgt_193'> +2.2484686e+00 </wgt>
<wgt id='rwgt_194'> +6.2438590e+00 </wgt>
<wgt id='rwgt_195'> +1.7914581e+01 </wgt>
<wgt id='rwgt_196'> +1.0646630e+01 </wgt>
<wgt id='rwgt_197'> +3.2867474e+00 </wgt>
<wgt id='rwgt_198'> +3.2867474e+00 </wgt>
<wgt id='rwgt_199'> +2.6628191e+01 </wgt>
<wgt id='rwgt_200'> +1.7283683e+01 </wgt>
<wgt id='rwgt_201'> +6.2438590e+00 </wgt>
<wgt id='rwgt_202'> +2.2484686e+00 </wgt>
<wgt id='rwgt_203'> +3.7260635e+01 </wgt>
<wgt id='rwgt_204'> +3.1290227e+00 </wgt>
<wgt id='rwgt_205'> +1.1119804e+01 </wgt>
<wgt id='rwgt_206'> +1.0646630e+01 </wgt>
<wgt id='rwgt_207'> +3.1290227e+00 </wgt>
<wgt id='rwgt_208'> +1.1119804e+01 </wgt>
<wgt id='rwgt_209'> +2.6628191e+01 </wgt>
<wgt id='rwgt_210'> +1.7283683e+01 </wgt>
<wgt id='rwgt_211'> +2.2484686e+00 </wgt>
<wgt id='rwgt_212'> +6.2438590e+00 </wgt>
<wgt id='rwgt_213'> +3.7260635e+01 </wgt>
<wgt id='rwgt_214'> +2.5839568e+01 </wgt>
<wgt id='rwgt_215'> +3.2867474e+00 </wgt>
<wgt id='rwgt_216'> +3.2867474e+00 </wgt>
<wgt id='rwgt_217'> +4.9811911e+01 </wgt>
<wgt id='rwgt_218'> +5.9284098e+00 </wgt>
<wgt id='rwgt_219'> +1.7914581e+01 </wgt>
<wgt id='rwgt_220'> +2.2484686e+00 </wgt>
<wgt id='rwgt_221'> +6.2438590e+00 </wgt>
<wgt id='rwgt_222'> +3.1290227e+00 </wgt>
<wgt id='rwgt_223'> +1.1119804e+01 </wgt>
<wgt id='rwgt_224'> +5.9284098e+00 </wgt>
<wgt id='rwgt_225'> +1.7914581e+01 </wgt>
<wgt id='rwgt_226'> +3.2867474e+00 </wgt>
<wgt id='rwgt_227'> +1.9626504e+01 </wgt>
<wgt id='rwgt_228'> +9.1298538e+00 </wgt>
<wgt id='rwgt_229'> +9.1298538e+00 </wgt>
<wgt id='rwgt_230'> +6.3085356e+00 </wgt>
<wgt id='rwgt_231'> +2.7753078e+01 </wgt>
<wgt id='rwgt_232'> +6.7597783e+00 </wgt>
<wgt id='rwgt_233'> +1.3418762e+01 </wgt>
<wgt id='rwgt_234'> +7.7761258e+00 </wgt>
<wgt id='rwgt_235'> +3.7798485e+01 </wgt>
<wgt id='rwgt_236'> +6.3085356e+00 </wgt>
<wgt id='rwgt_237'> +1.9626504e+01 </wgt>
<wgt id='rwgt_238'> +1.1162549e+01 </wgt>
<wgt id='rwgt_239'> +1.3418762e+01 </wgt>
<wgt id='rwgt_240'> +6.7597783e+00 </wgt>
<wgt id='rwgt_241'> +2.7753078e+01 </wgt>
<wgt id='rwgt_242'> +1.3418762e+01 </wgt>
<wgt id='rwgt_243'> +6.7597783e+00 </wgt>
<wgt id='rwgt_244'> +7.7761258e+00 </wgt>
<wgt id='rwgt_245'> +3.7798485e+01 </wgt>
<wgt id='rwgt_246'> +9.1298538e+00 </wgt>
<wgt id='rwgt_247'> +9.1298538e+00 </wgt>
<wgt id='rwgt_248'> +1.1162549e+01 </wgt>
<wgt id='rwgt_249'> +4.9762725e+01 </wgt>
<wgt id='rwgt_250'> +6.7597783e+00 </wgt>
<wgt id='rwgt_251'> +1.3418762e+01 </wgt>
<wgt id='rwgt_252'> +1.6467805e+01 </wgt>
<wgt id='rwgt_253'> +1.9626504e+01 </wgt>
<wgt id='rwgt_254'> +6.3085356e+00 </wgt>
<wgt id='rwgt_255'> +3.7798485e+01 </wgt>
<wgt id='rwgt_256'> +1.9626504e+01 </wgt>
<wgt id='rwgt_257'> +6.3085356e+00 </wgt>
<wgt id='rwgt_258'> +1.1162549e+01 </wgt>
<wgt id='rwgt_259'> +4.9762725e+01 </wgt>
<wgt id='rwgt_260'> +1.3418762e+01 </wgt>
<wgt id='rwgt_261'> +6.7597783e+00 </wgt>
<wgt id='rwgt_262'> +1.6467805e+01 </wgt>
<wgt id='rwgt_263'> +6.3645798e+01 </wgt>
<wgt id='rwgt_264'> +9.1298538e+00 </wgt>
<wgt id='rwgt_265'> +9.1298538e+00 </wgt>
<wgt id='rwgt_266'> +2.3691894e+01 </wgt>
<wgt id='rwgt_267'> +2.7753078e+01 </wgt>
<wgt id='rwgt_268'> +7.7761258e+00 </wgt>
<wgt id='rwgt_269'> +1.3418762e+01 </wgt>
<wgt id='rwgt_270'> +6.7597783e+00 </wgt>
<wgt id='rwgt_271'> +1.9626504e+01 </wgt>
<wgt id='rwgt_272'> +6.3085356e+00 </wgt>
<wgt id='rwgt_273'> +2.7753078e+01 </wgt>
<wgt id='rwgt_274'> +7.7761258e+00 </wgt>
<wgt id='rwgt_275'> +9.1298538e+00 </wgt>
<wgt id='rwgt_276'> +6.3085356e+00 </wgt>
<wgt id='rwgt_277'> +9.1298538e+00 </wgt>
<wgt id='rwgt_278'> +9.1298538e+00 </wgt>
<wgt id='rwgt_279'> +1.9626504e+01 </wgt>
<wgt id='rwgt_280'> +7.7761258e+00 </wgt>
<wgt id='rwgt_281'> +1.3418762e+01 </wgt>
<wgt id='rwgt_282'> +6.7597783e+00 </wgt>
<wgt id='rwgt_283'> +2.7753078e+01 </wgt>
<wgt id='rwgt_284'> +1.1162549e+01 </wgt>
<wgt id='rwgt_285'> +1.9626504e+01 </wgt>
<wgt id='rwgt_286'> +6.3085356e+00 </wgt>
<wgt id='rwgt_287'> +3.7798485e+01 </wgt>
<wgt id='rwgt_288'> +6.7597783e+00 </wgt>
<wgt id='rwgt_289'> +1.3418762e+01 </wgt>
<wgt id='rwgt_290'> +7.7761258e+00 </wgt>
<wgt id='rwgt_291'> +6.7597783e+00 </wgt>
<wgt id='rwgt_292'> +1.3418762e+01 </wgt>
<wgt id='rwgt_293'> +2.7753078e+01 </wgt>
<wgt id='rwgt_294'> +1.1162549e+01 </wgt>
<wgt id='rwgt_295'> +9.1298538e+00 </wgt>
<wgt id='rwgt_296'> +9.1298538e+00 </wgt>
<wgt id='rwgt_297'> +3.7798485e+01 </wgt>
<wgt id='rwgt_298'> +1.6467805e+01 </wgt>
<wgt id='rwgt_299'> +1.3418762e+01 </wgt>
<wgt id='rwgt_300'> +6.7597783e+00 </wgt>
<wgt id='rwgt_301'> +4.9762725e+01 </wgt>
<wgt id='rwgt_302'> +6.3085356e+00 </wgt>
<wgt id='rwgt_303'> +1.9626504e+01 </wgt>
<wgt id='rwgt_304'> +1.1162549e+01 </wgt>
<wgt id='rwgt_305'> +6.3085356e+00 </wgt>
<wgt id='rwgt_306'> +1.9626504e+01 </wgt>
<wgt id='rwgt_307'> +3.7798485e+01 </wgt>
<wgt id='rwgt_308'> +1.6467805e+01 </wgt>
<wgt id='rwgt_309'> +6.7597783e+00 </wgt>
<wgt id='rwgt_310'> +1.3418762e+01 </wgt>
<wgt id='rwgt_311'> +4.9762725e+01 </wgt>
<wgt id='rwgt_312'> +2.3691894e+01 </wgt>
<wgt id='rwgt_313'> +9.1298538e+00 </wgt>
<wgt id='rwgt_314'> +9.1298538e+00 </wgt>
<wgt id='rwgt_315'> +6.3645798e+01 </wgt>
<wgt id='rwgt_316'> +7.7761258e+00 </wgt>
<wgt id='rwgt_317'> +2.7753078e+01 </wgt>
<wgt id='rwgt_318'> +6.7597783e+00 </wgt>
<wgt id='rwgt_319'> +1.3418762e+01 </wgt>
<wgt id='rwgt_320'> +6.3085356e+00 </wgt>
<wgt id='rwgt_321'> +1.9626504e+01 </wgt>
<wgt id='rwgt_322'> +7.7761258e+00 </wgt>
<wgt id='rwgt_323'> +2.7753078e+01 </wgt>
<wgt id='rwgt_324'> +9.1298538e+00 </wgt>
<wgt id='rwgt_325'> +3.8376658e+00 </wgt>
<wgt id='rwgt_326'> +0.0000000e+00 </wgt>
<wgt id='rwgt_327'> +0.0000000e+00 </wgt>
<wgt id='rwgt_328'> +3.8376658e+00 </wgt>
<wgt id='rwgt_329'> +8.6347480e+00 </wgt>
<wgt id='rwgt_330'> +9.5941645e-01 </wgt>
<wgt id='rwgt_331'> +9.5941645e-01 </wgt>
<wgt id='rwgt_332'> +8.6347480e+00 </wgt>
<wgt id='rwgt_333'> +1.5350663e+01 </wgt>
<wgt id='rwgt_334'> +3.8376658e+00 </wgt>
<wgt id='rwgt_335'> +3.8376658e+00 </wgt>
<wgt id='rwgt_336'> +1.5350663e+01 </wgt>
<wgt id='rwgt_337'> +9.5941645e-01 </wgt>
<wgt id='rwgt_338'> +9.5941645e-01 </wgt>
<wgt id='rwgt_339'> +8.6347480e+00 </wgt>
<wgt id='rwgt_340'> +9.5941645e-01 </wgt>
<wgt id='rwgt_341'> +9.5941645e-01 </wgt>
<wgt id='rwgt_342'> +8.6347480e+00 </wgt>
<wgt id='rwgt_343'> +1.5350663e+01 </wgt>
<wgt id='rwgt_344'> +0.0000000e+00 </wgt>
<wgt id='rwgt_345'> +0.0000000e+00 </wgt>
<wgt id='rwgt_346'> +1.5350663e+01 </wgt>
<wgt id='rwgt_347'> +2.3985411e+01 </wgt>
<wgt id='rwgt_348'> +9.5941645e-01 </wgt>
<wgt id='rwgt_349'> +9.5941645e-01 </wgt>
<wgt id='rwgt_350'> +2.3985411e+01 </wgt>
<wgt id='rwgt_351'> +3.8376658e+00 </wgt>
<wgt id='rwgt_352'> +3.8376658e+00 </wgt>
<wgt id='rwgt_353'> +1.5350663e+01 </wgt>
<wgt id='rwgt_354'> +3.8376658e+00 </wgt>
<wgt id='rwgt_355'> +3.8376658e+00 </wgt>
<wgt id='rwgt_356'> +1.5350663e+01 </wgt>
<wgt id='rwgt_357'> +2.3985411e+01 </wgt>
<wgt id='rwgt_358'> +9.5941645e-01 </wgt>
<wgt id='rwgt_359'> +9.5941645e-01 </wgt>
<wgt id='rwgt_360'> +2.3985411e+01 </wgt>
<wgt id='rwgt_361'> +3.4538992e+01 </wgt>
<wgt id='rwgt_362'> +0.0000000e+00 </wgt>
<wgt id='rwgt_363'> +0.0000000e+00 </wgt>
<wgt id='rwgt_364'> +3.4538992e+01 </wgt>
<wgt id='rwgt_365'> +8.6347480e+00 </wgt>
<wgt id='rwgt_366'> +8.6347480e+00 </wgt>
<wgt id='rwgt_367'> +9.5941645e-01 </wgt>
<wgt id='rwgt_368'> +9.5941645e-01 </wgt>
<wgt id='rwgt_369'> +3.8376658e+00 </wgt>
<wgt id='rwgt_370'> +3.8376658e+00 </wgt>
<wgt id='rwgt_371'> +8.6347480e+00 </wgt>
<wgt id='rwgt_372'> +8.6347480e+00 </wgt>
<wgt id='rwgt_373'> +0.0000000e+00 </wgt>
</rwgt>
</event>
<event npLO=" -1 " npNLO=" 1 ">
 7      1 -9.9972252e+01 1.10698850e+01 7.54677110e-03 1.57627120e-01
       -2 -1    0    0    0  501 +0.0000000000e+00 +0.0000000000e+00 +1.7861354000e+02 1.7861354000e+02 0.0000000000e+00 0.0000e+00 9.0000e+00
        1 -1    0    0  502    0 +0.0000000000e+00 +0.0000000000e+00 -3.7131877000e+02 3.7131877000e+02 0.0000000000e+00 0.0000e+00 9.0000e+00
      -24  2    1    2    0    0 +1.2625455000e+02 +2.0371042000e+02 -1.4727155000e+02 2.9272475000e+02 8.0998306000e+01 0.0000e+00 0.0000e+00
       13  1    3    3    0    0 +5.0908762000e+01 +1.5459172000e+02 -8.8223963000e+01 1.8513177000e+02 0.0000000000e+00 0.0000e+00 9.0000e+00
      -14  1    3    3    0    0 +7.5345784000e+01 +4.9118701000e+01 -5.9047586000e+01 1.0759299000e+02 0.0000000000e+00 0.0000e+00 9.0000e+00
       22  1    1    2    0    0 -1.2155377000e+02 -1.9368820000e+02 -6.2324732000e+01 2.3701225000e+02 0.0000000000e+00 0.0000e+00 9.0000e+00
       21  1    1    2  502  501 -4.7007770000e+00 -1.0022227000e+01 +1.6891059000e+01 2.0195302000e+01 0.0000000000e+00 0.0000e+00 9.0000e+00
#aMCatNLO 1  0  0  2  6 0.17401275E+02 0.00000000E+00 -9  7  0 0.00000000E+00 0.00000000E+00 0.00000000E+00 0.00000000E+00 0.00000000E+00
<rwgt>
<wgt id='1001'> -9.9973000e+01 </wgt>
<wgt id='1002'> -7.4646000e+01 </wgt>
<wgt id='1003'> -1.4098000e+02 </wgt>
<wgt id='1004'> -9.7177000e+01 </wgt>
<wgt id='1005'> -7.2555000e+01 </wgt>
<wgt id='1006'> -1.3705000e+02 </wgt>
<wgt id='1007'> -1.0251000e+02 </wgt>
<wgt id='1008'> -7.6549000e+01 </wgt>
<wgt id='1009'> -1.4455000e+02 </wgt>
<wgt id='1010'> -9.9973000e+01 </wgt>
<wgt id='1011'> -9.5124000e+01 </wgt>
<wgt id='1012'> -9.8542000e+01 </wgt>
<wgt id='1013'> -9.9869000e+01 </wgt>
<wgt id='1014'> -1.0330000e+02 </wgt>
<wgt id='1015'> -9.6877000e+01 </wgt>
<wgt id='1016'> -9.7359000e+01 </wgt>
<wgt id='1017'> -1.0397000e+02 </wgt>
<wgt id='1018'> -1.0189000e+02 </wgt>
<wgt id='1019'> -1.0045000e+02 </wgt>
<wgt id='1020'> -1.0373000e+02 </wgt>
<wgt id='1021'> -9.9199000e+01 </wgt>
<wgt id='1022'> -9.8191000e+01 </wgt>
<wgt id='1023'> -1.0079000e+02 </wgt>
<wgt id='1024'> -9.9947000e+01 </wgt>
<wgt id='1025'> -9.9334000e+01 </wgt>
<wgt id='1026'> -9.9406000e+01 </wgt>
<wgt id='1027'> -9.7446000e+01 </wgt>
<wgt id='1028'> -9.2707000e+01 </wgt>
<wgt id='1029'> -9.9343000e+01 </wgt>
<wgt id='1030'> -1.0544000e+02 </wgt>
<wgt id='1031'> -1.0294000e+02 </wgt>
<wgt id='1032'> -1.0398000e+02 </wgt>
<wgt id='1033'> -1.0149000e+02 </wgt>
<wgt id='1034'> -1.0251000e+02 </wgt>
<wgt id='1035'> -9.9084000e+01 </wgt>
<wgt id='1036'> -1.0101000e+02 </wgt>
<wgt id='1037'> -9.7929000e+01 </wgt>
<wgt id='1038'> -9.8949000e+01 </wgt>
<wgt id='1039'> -1.0057000e+02 </wgt>
<wgt id='1040'> -1.0155000e+02 </wgt>
<wgt id='1041'> -1.0300000e+02 </wgt>
<wgt id='1042'> -1.0430000e+02 </wgt>
<wgt id='1043'> -1.0363000e+02 </wgt>
<wgt id='1044'> -9.8955000e+01 </wgt>
<wgt id='1045'> -1.0412000e+02 </wgt>
<wgt id='1046'> -9.8670000e+01 </wgt>
<wgt id='1047'> -9.8320000e+01 </wgt>
<wgt id='1048'> -1.0096000e+02 </wgt>
<wgt id='1049'> -9.6867000e+01 </wgt>
<wgt id='1050'> -1.0103000e+02 </wgt>
<wgt id='1051'> -9.8602000e+01 </wgt>
<wgt id='1052'> -9.8921000e+01 </wgt>
<wgt id='1053'> -1.0176000e+02 </wgt>
<wgt id='1054'> -9.9462000e+01 </wgt>
<wgt id='1055'> -1.0209000e+02 </wgt>
<wgt id='1056'> -9.5230000e+01 </wgt>
<wgt id='1057'> -9.8592000e+01 </wgt>
<wgt id='1058'> -9.9509000e+01 </wgt>
<wgt id='1059'> -1.0204000e+02 </wgt>
<wgt id='1060'> -1.0082000e+02 </wgt>
<wgt id='1061'> -1.0116000e+02 </wgt>
<wgt id='1062'> -1.0123000e+02 </wgt>
<wgt id='1063'> -1.0004000e+02 </wgt>
<wgt id='1064'> -1.0112000e+02 </wgt>
<wgt id='1065'> -1.0120000e+02 </wgt>
<wgt id='1066'> -9.5384000e+01 </wgt>
<wgt id='1067'> -9.5834000e+01 </wgt>
<wgt id='1068'> -9.9603000e+01 </wgt>
<wgt id='1069'> -9.8936000e+01 </wgt>
<wgt id='1070'> -1.0347000e+02 </wgt>
<wgt id='1071'> -9.7878000e+01 </wgt>
<wgt id='1072'> -9.8655000e+01 </wgt>
<wgt id='1073'> -9.5042000e+01 </wgt>
<wgt id='1074'> -9.0782000e+01 </wgt>
<wgt id='1075'> -1.0155000e+02 </wgt>
<wgt id='1076'> -1.0041000e+02 </wgt>
<wgt id='1077'> -1.0974000e+02 </wgt>
<wgt id='1078'> -1.0009000e+02 </wgt>
<wgt id='1079'> -1.0255000e+02 </wgt>
<wgt id='1080'> -1.0204000e+02 </wgt>
<wgt id='1081'> -1.0076000e+02 </wgt>
<wgt id='1082'> -9.8955000e+01 </wgt>
<wgt id='1083'> -1.0004000e+02 </wgt>
<wgt id='1084'> -1.0063000e+02 </wgt>
<wgt id='1085'> -9.7619000e+01 </wgt>
<wgt id='1086'> -1.0416000e+02 </wgt>
<wgt id='1087'> -9.9472000e+01 </wgt>
<wgt id='1088'> -1.0006000e+02 </wgt>
<wgt id='1089'> -1.0014000e+02 </wgt>
<wgt id='1090'> -1.0304000e+02 </wgt>
<wgt id='1091'> -1.0163000e+02 </wgt>
<wgt id='1092'> -1.0311000e+02 </wgt>
<wgt id='1093'> -9.8918000e+01 </wgt>
<wgt id='1094'> -9.9525000e+01 </wgt>
<wgt id='1095'> -1.0002000e+02 </wgt>
<wgt id='1096'> -9.6964000e+01 </wgt>
<wgt id='1097'> -1.0091000e+02 </wgt>
<wgt id='1098'> -9.9312000e+01 </wgt>
<wgt id='1099'> -9.6100000e+01 </wgt>
<wgt id='1100'> -1.0068000e+02 </wgt>
<wgt id='1101'> -1.0168000e+02 </wgt>
<wgt id='1102'> -1.0457000e+02 </wgt>
<wgt id='1103'> -9.8783000e+01 </wgt>
<wgt id='1104'> -9.7766000e+01 </wgt>
<wgt id='1105'> -9.3127000e+01 </wgt>
<wgt id='1106'> -1.0111000e+02 </wgt>
<wgt id='1107'> -9.8692000e+01 </wgt>
<wgt id='1108'> -1.0094000e+02 </wgt>
<wgt id='1109'> -9.8949000e+01 </wgt>
<wgt id='1110'> -9.3700000e+01 </wgt>
<wgt id='1111'> -9.7734000e+01 </wgt>
<wgt id='1112'> -1.0224000e+02 </wgt>
<wgt id='rwgt_1'> -3.4057176e-01 </wgt>
<wgt id='rwgt_2'> -3.4057176e-01 </wgt>
<wgt id='rwgt_3'> -3.0651459e+00 </wgt>
<wgt id='rwgt_4'> -3.0651459e+00 </wgt>
<wgt id='rwgt_5'> -8.5142941e+00 </wgt>
<wgt id='rwgt_6'> -8.5142941e+00 </wgt>
<wgt id='rwgt_7'> -1.2586641e+00 </wgt>
<wgt id='rwgt_8'> -1.2586641e+00 </wgt>
<wgt id='rwgt_9'> -5.0346566e+00 </wgt>
<wgt id='rwgt_10'> -5.0346566e+00 </wgt>
<wgt id='rwgt_11'> -1.1327977e+01 </wgt>
<wgt id='rwgt_12'> -1.1327977e+01 </wgt>
<wgt id='rwgt_13'> -1.2586641e+00 </wgt>
<wgt id='rwgt_14'> -1.2586641e+00 </wgt>
<wgt id='rwgt_15'> -5.0346566e+00 </wgt>
<wgt id='rwgt_16'> -5.0346566e+00 </wgt>
<wgt id='rwgt_17'> -1.1327977e+01 </wgt>
<wgt id='rwgt_18'> -1.1327977e+01 </wgt>
<wgt id='rwgt_19'> -8.7186367e-01 </wgt>
<wgt id='rwgt_20'> -8.7186367e-01 </wgt>
<wgt id='rwgt_21'> -3.4874547e+00 </wgt>
<wgt id='rwgt_22'> -3.4874547e+00 </wgt>
<wgt id='rwgt_23'> -7.8467730e+00 </wgt>
<wgt id='rwgt_24'> -7.8467730e+00 </wgt>
<wgt id='rwgt_25'> -1.2586642e+00 </wgt>
<wgt id='rwgt_26'> -1.2586642e+00 </wgt>
<wgt id='rwgt_27'> -5.0346568e+00 </wgt>
<wgt id='rwgt_28'> -5.0346568e+00 </wgt>
<wgt id='rwgt_29'> -1.1327978e+01 </wgt>
<wgt id='rwgt_30'> -1.1327978e+01 </wgt>
<wgt id='rwgt_31'> -5.8665054e+00 </wgt>
<wgt id='rwgt_32'> -3.4057176e-01 </wgt>
<wgt id='rwgt_33'> -3.4057176e-01 </wgt>
<wgt id='rwgt_34'> -4.8839513e+00 </wgt>
<wgt id='rwgt_35'> -1.2405465e+01 </wgt>
<wgt id='rwgt_36'> -1.3535974e+00 </wgt>
<wgt id='rwgt_37'> -1.8448744e+00 </wgt>
<wgt id='rwgt_38'> -1.0931633e+01 </wgt>
<wgt id='rwgt_39'> -2.1461752e+01 </wgt>
<wgt id='rwgt_40'> -4.8839513e+00 </wgt>
<wgt id='rwgt_41'> -5.8665054e+00 </wgt>
<wgt id='rwgt_42'> -1.9496644e+01 </wgt>
<wgt id='rwgt_43'> -1.8448744e+00 </wgt>
<wgt id='rwgt_44'> -1.3535974e+00 </wgt>
<wgt id='rwgt_45'> -1.2405465e+01 </wgt>
<wgt id='rwgt_46'> -1.8448744e+00 </wgt>
<wgt id='rwgt_47'> -1.3535974e+00 </wgt>
<wgt id='rwgt_48'> -1.0931633e+01 </wgt>
<wgt id='rwgt_49'> -2.1461752e+01 </wgt>
<wgt id='rwgt_50'> -3.4057176e-01 </wgt>
<wgt id='rwgt_51'> -3.4057176e-01 </wgt>
<wgt id='rwgt_52'> -1.9496644e+01 </wgt>
<wgt id='rwgt_53'> -3.3035368e+01 </wgt>
<wgt id='rwgt_54'> -1.3535974e+00 </wgt>
<wgt id='rwgt_55'> -1.8448744e+00 </wgt>
<wgt id='rwgt_56'> -3.0578983e+01 </wgt>
<wgt id='rwgt_57'> -5.8665054e+00 </wgt>
<wgt id='rwgt_58'> -4.8839513e+00 </wgt>
<wgt id='rwgt_59'> -2.1461752e+01 </wgt>
<wgt id='rwgt_60'> -5.8665054e+00 </wgt>
<wgt id='rwgt_61'> -4.8839513e+00 </wgt>
<wgt id='rwgt_62'> -1.9496644e+01 </wgt>
<wgt id='rwgt_63'> -3.3035368e+01 </wgt>
<wgt id='rwgt_64'> -1.8448744e+00 </wgt>
<wgt id='rwgt_65'> -1.3535974e+00 </wgt>
<wgt id='rwgt_66'> -3.0578983e+01 </wgt>
<wgt id='rwgt_67'> -4.7126312e+01 </wgt>
<wgt id='rwgt_68'> -3.4057176e-01 </wgt>
<wgt id='rwgt_69'> -3.4057176e-01 </wgt>
<wgt id='rwgt_70'> -4.4178650e+01 </wgt>
<wgt id='rwgt_71'> -1.2405465e+01 </wgt>
<wgt id='rwgt_72'> -1.0931633e+01 </wgt>
<wgt id='rwgt_73'> -1.8448744e+00 </wgt>
<wgt id='rwgt_74'> -1.3535974e+00 </wgt>
<wgt id='rwgt_75'> -5.8665054e+00 </wgt>
<wgt id='rwgt_76'> -4.8839513e+00 </wgt>
<wgt id='rwgt_77'> -1.2405465e+01 </wgt>
<wgt id='rwgt_78'> -1.0931633e+01 </wgt>
<wgt id='rwgt_79'> -3.4057176e-01 </wgt>
<wgt id='rwgt_80'> -4.8839513e+00 </wgt>
<wgt id='rwgt_81'> -3.4057176e-01 </wgt>
<wgt id='rwgt_82'> -3.4057176e-01 </wgt>
<wgt id='rwgt_83'> -5.8665054e+00 </wgt>
<wgt id='rwgt_84'> -1.0931633e+01 </wgt>
<wgt id='rwgt_85'> -1.8448744e+00 </wgt>
<wgt id='rwgt_86'> -1.3535974e+00 </wgt>
<wgt id='rwgt_87'> -1.2405465e+01 </wgt>
<wgt id='rwgt_88'> -1.9496644e+01 </wgt>
<wgt id='rwgt_89'> -5.8665054e+00 </wgt>
<wgt id='rwgt_90'> -4.8839513e+00 </wgt>
<wgt id='rwgt_91'> -2.1461752e+01 </wgt>
<wgt id='rwgt_92'> -1.3535974e+00 </wgt>
<wgt id='rwgt_93'> -1.8448744e+00 </wgt>
<wgt id='rwgt_94'> -1.0931633e+01 </wgt>
<wgt id='rwgt_95'> -1.3535974e+00 </wgt>
<wgt id='rwgt_96'> -1.8448744e+00 </wgt>
<wgt id='rwgt_97'> -1.2405465e+01 </wgt>
<wgt id='rwgt_98'> -1.9496644e+01 </wgt>
<wgt id='rwgt_99'> -3.4057176e-01 </wgt>
<wgt id='rwgt_100'> -3.4057176e-01 </wgt>
<wgt id='rwgt_101'> -2.1461752e+01 </wgt>
<wgt id='rwgt_102'> -3.0578983e+01 </wgt>
<wgt id='rwgt_103'> -1.8448744e+00 </wgt>
<wgt id='rwgt_104'> -1.3535974e+00 </wgt>
<wgt id='rwgt_105'> -3.3035368e+01 </wgt>
<wgt id='rwgt_106'> -4.8839513e+00 </wgt>
<wgt id='rwgt_107'> -5.8665054e+00 </wgt>
<wgt id='rwgt_108'> -1.9496644e+01 </wgt>
<wgt id='rwgt_109'> -4.8839513e+00 </wgt>
<wgt id='rwgt_110'> -5.8665054e+00 </wgt>
<wgt id='rwgt_111'> -2.1461752e+01 </wgt>
<wgt id='rwgt_112'> -3.0578983e+01 </wgt>
<wgt id='rwgt_113'> -1.3535974e+00 </wgt>
<wgt id='rwgt_114'> -1.8448744e+00 </wgt>
<wgt id='rwgt_115'> -3.3035368e+01 </wgt>
<wgt id='rwgt_116'> -4.4178650e+01 </wgt>
<wgt id='rwgt_117'> -3.4057176e-01 </wgt>
<wgt id='rwgt_118'> -3.4057176e-01 </wgt>
<wgt id='rwgt_119'> -4.7126312e+01 </wgt>
<wgt id='rwgt_120'> -1.0931633e+01 </wgt>
<wgt id='rwgt_121'> -1.2405465e+01 </wgt>
<wgt id='rwgt_122'> -1.3535974e+00 </wgt>
<wgt id='rwgt_123'> -1.8448744e+00 </wgt>
<wgt id='rwgt_124'> -4.8839513e+00 </wgt>
<wgt id='rwgt_125'> -5.8665054e+00 </wgt>
<wgt id='rwgt_126'> -1.0931633e+01 </wgt>
<wgt id='rwgt_127'> -1.2405465e+01 </wgt>
<wgt id='rwgt_128'> -3.4057176e-01 </wgt>
<wgt id='rwgt_129'> -9.5736336e+00 </wgt>
<wgt id='rwgt_130'> -3.0651459e+00 </wgt>
<wgt id='rwgt_131'> -3.0651459e+00 </wgt>
<wgt id='rwgt_132'> -6.6259713e+00 </wgt>
<wgt id='rwgt_133'> -1.6603870e+01 </wgt>
<wgt id='rwgt_134'> -3.5868944e+00 </wgt>
<wgt id='rwgt_135'> -5.0607256e+00 </wgt>
<wgt id='rwgt_136'> -1.2182376e+01 </wgt>
<wgt id='rwgt_137'> -2.6151434e+01 </wgt>
<wgt id='rwgt_138'> -6.6259713e+00 </wgt>
<wgt id='rwgt_139'> -9.5736336e+00 </wgt>
<wgt id='rwgt_140'> -2.0256110e+01 </wgt>
<wgt id='rwgt_141'> -5.0607256e+00 </wgt>
<wgt id='rwgt_142'> -3.5868944e+00 </wgt>
<wgt id='rwgt_143'> -1.6603870e+01 </wgt>
<wgt id='rwgt_144'> -5.0607256e+00 </wgt>
<wgt id='rwgt_145'> -3.5868944e+00 </wgt>
<wgt id='rwgt_146'> -1.2182376e+01 </wgt>
<wgt id='rwgt_147'> -2.6151434e+01 </wgt>
<wgt id='rwgt_148'> -3.0651459e+00 </wgt>
<wgt id='rwgt_149'> -3.0651459e+00 </wgt>
<wgt id='rwgt_150'> -2.0256110e+01 </wgt>
<wgt id='rwgt_151'> -3.8216327e+01 </wgt>
<wgt id='rwgt_152'> -3.5868944e+00 </wgt>
<wgt id='rwgt_153'> -5.0607256e+00 </wgt>
<wgt id='rwgt_154'> -3.0847171e+01 </wgt>
<wgt id='rwgt_155'> -9.5736336e+00 </wgt>
<wgt id='rwgt_156'> -6.6259713e+00 </wgt>
<wgt id='rwgt_157'> -2.6151434e+01 </wgt>
<wgt id='rwgt_158'> -9.5736336e+00 </wgt>
<wgt id='rwgt_159'> -6.6259713e+00 </wgt>
<wgt id='rwgt_160'> -2.0256110e+01 </wgt>
<wgt id='rwgt_161'> -3.8216327e+01 </wgt>
<wgt id='rwgt_162'> -5.0607256e+00 </wgt>
<wgt id='rwgt_163'> -3.5868944e+00 </wgt>
<wgt id='rwgt_164'> -3.0847171e+01 </wgt>
<wgt id='rwgt_165'> -5.2798548e+01 </wgt>
<wgt id='rwgt_166'> -3.0651459e+00 </wgt>
<wgt id='rwgt_167'> -3.0651459e+00 </wgt>
<wgt id='rwgt_168'> -4.3955561e+01 </wgt>
<wgt id='rwgt_169'> -1.6603870e+01 </wgt>
<wgt id='rwgt_170'> -1.2182376e+01 </wgt>
<wgt id='rwgt_171'> -5.0607256e+00 </wgt>
<wgt id='rwgt_172'> -3.5868944e+00 </wgt>
<wgt id='rwgt_173'> -9.5736336e+00 </wgt>
<wgt id='rwgt_174'> -6.6259713e+00 </wgt>
<wgt id='rwgt_175'> -1.6603870e+01 </wgt>
<wgt id='rwgt_176'> -1.2182376e+01 </wgt>
<wgt id='rwgt_177'> -3.0651459e+00 </wgt>
<wgt id='rwgt_178'> -6.6259713e+00 </wgt>
<wgt id='rwgt_179'> -3.0651459e+00 </wgt>
<wgt id='rwgt_180'> -3.0651459e+00 </wgt>
<wgt id='rwgt_181'> -9.5736336e+00 </wgt>
<wgt id='rwgt_182'> -1.2182376e+01 </wgt>
<wgt id='rwgt_183'> -5.0607256e+00 </wgt>
<wgt id='rwgt_184'> -3.5868944e+00 </wgt>
<wgt id='rwgt_185'> -1.6603870e+01 </wgt>
<wgt id='rwgt_186'> -2.0256110e+01 </wgt>
<wgt id='rwgt_187'> -9.5736336e+00 </wgt>
<wgt id='rwgt_188'> -6.6259713e+00 </wgt>
<wgt id='rwgt_189'> -2.6151434e+01 </wgt>
<wgt id='rwgt_190'> -3.5868944e+00 </wgt>
<wgt id='rwgt_191'> -5.0607256e+00 </wgt>
<wgt id='rwgt_192'> -1.2182376e+01 </wgt>
<wgt id='rwgt_193'> -3.5868944e+00 </wgt>
<wgt id='rwgt_194'> -5.0607256e+00 </wgt>
<wgt id='rwgt_195'> -1.6603870e+01 </wgt>
<wgt id='rwgt_196'> -2.0256110e+01 </wgt>
<wgt id='rwgt_197'> -3.0651459e+00 </wgt>
<wgt id='rwgt_198'> -3.0651459e+00 </wgt>
<wgt id='rwgt_199'> -2.6151434e+01 </wgt>
<wgt id='rwgt_200'> -3.0847171e+01 </wgt>
<wgt id='rwgt_201'> -5.0607256e+00 </wgt>
<wgt id='rwgt_202'> -3.5868944e+00 </wgt>
<wgt id='rwgt_203'> -3.8216327e+01 </wgt>
<wgt id='rwgt_204'> -6.6259713e+00 </wgt>
<wgt id='rwgt_205'> -9.5736336e+00 </wgt>
<wgt id='rwgt_206'> -2.0256110e+01 </wgt>
<wgt id='rwgt_207'> -6.6259713e+00 </wgt>
<wgt id='rwgt_208'> -9.5736336e+00 </wgt>
<wgt id='rwgt_209'> -2.6151434e+01 </wgt>
<wgt id='rwgt_210'> -3.0847171e+01 </wgt>
<wgt id='rwgt_211'> -3.5868944e+00 </wgt>
<wgt id='rwgt_212'> -5.0607256e+00 </wgt>
<wgt id='rwgt_213'> -3.8216327e+01 </wgt>
<wgt id='rwgt_214'> -4.3955561e+01 </wgt>
<wgt id='rwgt_215'> -3.0651459e+00 </wgt>
<wgt id='rwgt_216'> -3.0651459e+00 </wgt>
<wgt id='rwgt_217'> -5.2798548e+01 </wgt>
<wgt id='rwgt_218'> -1.2182376e+01 </wgt>
<wgt id='rwgt_219'> -1.6603870e+01 </wgt>
<wgt id='rwgt_220'> -3.5868944e+00 </wgt>
<wgt id='rwgt_221'> -5.0607256e+00 </wgt>
<wgt id='rwgt_222'> -6.6259713e+00 </wgt>
<wgt id='rwgt_223'> -9.5736336e+00 </wgt>
<wgt id='rwgt_224'> -1.2182376e+01 </wgt>
<wgt id='rwgt_225'> -1.6603870e+01 </wgt>
<wgt id='rwgt_226'> -3.0651459e+00 </wgt>
<wgt id='rwgt_227'> -1.6005336e+01 </wgt>
<wgt id='rwgt_228'> -8.5142941e+00 </wgt>
<wgt id='rwgt_229'> -8.5142941e+00 </wgt>
<wgt id='rwgt_230'> -1.1092565e+01 </wgt>
<wgt id='rwgt_231'> -2.3526849e+01 </wgt>
<wgt id='rwgt_232'> -8.5447656e+00 </wgt>
<wgt id='rwgt_233'> -1.1001151e+01 </wgt>
<wgt id='rwgt_234'> -1.6157693e+01 </wgt>
<wgt id='rwgt_235'> -3.3565691e+01 </wgt>
<wgt id='rwgt_236'> -1.1092565e+01 </wgt>
<wgt id='rwgt_237'> -1.6005336e+01 </wgt>
<wgt id='rwgt_238'> -2.3740150e+01 </wgt>
<wgt id='rwgt_239'> -1.1001151e+01 </wgt>
<wgt id='rwgt_240'> -8.5447656e+00 </wgt>
<wgt id='rwgt_241'> -2.3526849e+01 </wgt>
<wgt id='rwgt_242'> -1.1001151e+01 </wgt>
<wgt id='rwgt_243'> -8.5447656e+00 </wgt>
<wgt id='rwgt_244'> -1.6157693e+01 </wgt>
<wgt id='rwgt_245'> -3.3565691e+01 </wgt>
<wgt id='rwgt_246'> -8.5142941e+00 </wgt>
<wgt id='rwgt_247'> -8.5142941e+00 </wgt>
<wgt id='rwgt_248'> -2.3740150e+01 </wgt>
<wgt id='rwgt_249'> -4.6121861e+01 </wgt>
<wgt id='rwgt_250'> -8.5447656e+00 </wgt>
<wgt id='rwgt_251'> -1.1001151e+01 </wgt>
<wgt id='rwgt_252'> -3.3839934e+01 </wgt>
<wgt id='rwgt_253'> -1.6005336e+01 </wgt>
<wgt id='rwgt_254'> -1.1092565e+01 </wgt>
<wgt id='rwgt_255'> -3.3565691e+01 </wgt>
<wgt id='rwgt_256'> -1.6005336e+01 </wgt>
<wgt id='rwgt_257'> -1.1092565e+01 </wgt>
<wgt id='rwgt_258'> -2.3740150e+01 </wgt>
<wgt id='rwgt_259'> -4.6121861e+01 </wgt>
<wgt id='rwgt_260'> -1.1001151e+01 </wgt>
<wgt id='rwgt_261'> -8.5447656e+00 </wgt>
<wgt id='rwgt_262'> -3.3839934e+01 </wgt>
<wgt id='rwgt_263'> -6.1195359e+01 </wgt>
<wgt id='rwgt_264'> -8.5142941e+00 </wgt>
<wgt id='rwgt_265'> -8.5142941e+00 </wgt>
<wgt id='rwgt_266'> -4.6457047e+01 </wgt>
<wgt id='rwgt_267'> -2.3526849e+01 </wgt>
<wgt id='rwgt_268'> -1.6157693e+01 </wgt>
<wgt id='rwgt_269'> -1.1001151e+01 </wgt>
<wgt id='rwgt_270'> -8.5447656e+00 </wgt>
<wgt id='rwgt_271'> -1.6005336e+01 </wgt>
<wgt id='rwgt_272'> -1.1092565e+01 </wgt>
<wgt id='rwgt_273'> -2.3526849e+01 </wgt>
<wgt id='rwgt_274'> -1.6157693e+01 </wgt>
<wgt id='rwgt_275'> -8.5142941e+00 </wgt>
<wgt id='rwgt_276'> -1.1092565e+01 </wgt>
<wgt id='rwgt_277'> -8.5142941e+00 </wgt>
<wgt id='rwgt_278'> -8.5142941e+00 </wgt>
<wgt id='rwgt_279'> -1.6005336e+01 </wgt>
<wgt id='rwgt_280'> -1.6157693e+01 </wgt>
<wgt id='rwgt_281'> -1.1001151e+01 </wgt>
<wgt id='rwgt_282'> -8.5447656e+00 </wgt>
<wgt id='rwgt_283'> -2.3526849e+01 </wgt>
<wgt id='rwgt_284'> -2.3740150e+01 </wgt>
<wgt id='rwgt_285'> -1.6005336e+01 </wgt>
<wgt id='rwgt_286'> -1.1092565e+01 </wgt>
<wgt id='rwgt_287'> -3.3565691e+01 </wgt>
<wgt id='rwgt_288'> -8.5447656e+00 </wgt>
<wgt id='rwgt_289'> -1.1001151e+01 </wgt>
<wgt id='rwgt_290'> -1.6157693e+01 </wgt>
<wgt id='rwgt_291'> -8.5447656e+00 </wgt>
<wgt id='rwgt_292'> -1.1001151e+01 </wgt>
<wgt id='rwgt_293'> -2.3526849e+01 </wgt>
<wgt id='rwgt_294'> -2.3740150e+01 </wgt>
<wgt id='rwgt_295'> -8.5142941e+00 </wgt>
<wgt id='rwgt_296'> -8.5142941e+00 </wgt>
<wgt id='rwgt_297'> -3.3565691e+01 </wgt>
<wgt id='rwgt_298'> -3.3839934e+01 </wgt>
<wgt id='rwgt_299'> -1.1001151e+01 </wgt>
<wgt id='rwgt_300'> -8.5447656e+00 </wgt>
<wgt id='rwgt_301'> -4.6121861e+01 </wgt>
<wgt id='rwgt_302'> -1.1092565e+01 </wgt>
<wgt id='rwgt_303'> -1.6005336e+01 </wgt>
<wgt id='rwgt_304'> -2.3740150e+01 </wgt>
<wgt id='rwgt_305'> -1.1092565e+01 </wgt>
<wgt id='rwgt_306'> -1.6005336e+01 </wgt>
<wgt id='rwgt_307'> -3.3565691e+01 </wgt>
<wgt id='rwgt_308'> -3.3839934e+01 </wgt>
<wgt id='rwgt_309'> -8.5447656e+00 </wgt>
<wgt id='rwgt_310'> -1.1001151e+01 </wgt>
<wgt id='rwgt_311'> -4.6121861e+01 </wgt>
<wgt id='rwgt_312'> -4.6457047e+01 </wgt>
<wgt id='rwgt_313'> -8.5142941e+00 </wgt>
<wgt id='rwgt_314'> -8.5142941e+00 </wgt>
<wgt id='rwgt_315'> -6.1195359e+01 </wgt>
<wgt id='rwgt_316'> -1.6157693e+01 </wgt>
<wgt id='rwgt_317'> -2.3526849e+01 </wgt>
<wgt id='rwgt_318'> -8.5447656e+00 </wgt>
<wgt id='rwgt_319'> -1.1001151e+01 </wgt>
<wgt id='rwgt_320'> -1.1092565e+01 </wgt>
<wgt id='rwgt_321'> -1.6005336e+01 </wgt>
<wgt id='rwgt_322'> -1.6157693e+01 </wgt>
<wgt id='rwgt_323'> -2.3526849e+01 </wgt>
<wgt id='rwgt_324'> -8.5142941e+00 </wgt>
<wgt id='rwgt_325'> -5.0346566e+00 </wgt>
<wgt id='rwgt_326'> -0.0000000e+00 </wgt>
<wgt id='rwgt_327'> -0.0000000e+00 </wgt>
<wgt id='rwgt_328'> -5.0346566e+00 </wgt>
<wgt id='rwgt_329'> -1.1327977e+01 </wgt>
<wgt id='rwgt_330'> -1.2586641e+00 </wgt>
<wgt id='rwgt_331'> -1.2586641e+00 </wgt>
<wgt id='rwgt_332'> -1.1327977e+01 </wgt>
<wgt id='rwgt_333'> -2.0138626e+01 </wgt>
<wgt id='rwgt_334'> -5.0346566e+00 </wgt>
<wgt id='rwgt_335'> -5.0346566e+00 </wgt>
<wgt id='rwgt_336'> -2.0138626e+01 </wgt>
<wgt id='rwgt_337'> -1.2586641e+00 </wgt>
<wgt id='rwgt_338'> -1.2586641e+00 </wgt>
<wgt id='rwgt_339'> -1.1327977e+01 </wgt>
<wgt id='rwgt_340'> -1.2586641e+00 </wgt>
<wgt id='rwgt_341'> -1.2586641e+00 </wgt>
<wgt id='rwgt_342'> -1.1327977e+01 </wgt>
<wgt id='rwgt_343'> -2.0138626e+01 </wgt>
<wgt id='rwgt_344'> -0.0000000e+00 </wgt>
<wgt id='rwgt_345'> -0.0000000e+00 </wgt>
<wgt id='rwgt_346'> -2.0138626e+01 </wgt>
<wgt id='rwgt_347'> -3.1466603e+01 </wgt>
<wgt id='rwgt_348'> -1.2586641e+00 </wgt>
<wgt id='rwgt_349'> -1.2586641e+00 </wgt>
<wgt id='rwgt_350'> -3.1466603e+01 </wgt>
<wgt id='rwgt_351'> -5.0346566e+00 </wgt>
<wgt id='rwgt_352'> -5.0346566e+00 </wgt>
<wgt id='rwgt_353'> -2.0138626e+01 </wgt>
<wgt id='rwgt_354'> -5.0346566e+00 </wgt>
<wgt id='rwgt_355'> -5.0346566e+00 </wgt>
<wgt id='rwgt_356'> -2.0138626e+01 </wgt>
<wgt id='rwgt_357'> -3.1466603e+01 </wgt>
<wgt id='rwgt_358'> -1.2586641e+00 </wgt>
<wgt id='rwgt_359'> -1.2586641e+00 </wgt>
<wgt id='rwgt_360'> -3.1466603e+01 </wgt>
<wgt id='rwgt_361'> -4.5311909e+01 </wgt>
<wgt id='rwgt_362'> -0.0000000e+00 </wgt>
<wgt id='rwgt_363'> -0.0000000e+00 </wgt>
<wgt id='rwgt_364'> -4.5311909e+01 </wgt>
<wgt id='rwgt_365'> -1.1327977e+01 </wgt>
<wgt id='rwgt_366'> -1.1327977e+01 </wgt>
<wgt id='rwgt_367'> -1.2586641e+00 </wgt>
<wgt id='rwgt_368'> -1.2586641e+00 </wgt>
<wgt id='rwgt_369'> -5.0346566e+00 </wgt>
<wgt id='rwgt_370'> -5.0346566e+00 </wgt>
<wgt id='rwgt_371'> -1.1327977e+01 </wgt>
<wgt id='rwgt_372'> -1.1327977e+01 </wgt>
<wgt id='rwgt_373'> -0.0000000e+00 </wgt>
</rwgt>
</event>
<event npLO=" -1 " npNLO=" 1 ">
 7      1 +9.9972252e+01 1.18439560e+01 7.54677110e-03 1.24466340e-01
        2 -1    0    0  502    0 +0.0000000000e+00 +0.0000000000e+00 +5.6268811000e+01 5.6268811000e+01 0.0000000000e+00 0.0000e+00 9.0000e+00
       -1 -1    0    0    0  501 +0.0000000000e+00 +0.0000000000e+00 -1.1266582000e+02 1.1266582000e+02 0.0000000000e+00 0.0000e+00 9.0000e+00
       24  2    1    2    0    0 -1.8370350000e+01 +7.8630875000e+00 -3.1923984000e+01 8.9226835000e+01 8.0888747000e+01 0.0000e+00 0.0000e+00
      -15  1    3    3    0    0 -2.3656608000e+01 +4.1945539000e+01 -1.2973563000e+01 4.9873607000e+01 0.0000000000e+00 0.0000e+00 9.0000e+00
       16  1    3    3    0    0 +5.2862578000e+00 -3.4082452000e+01 -1.8950422000e+01 3.9353227000e+01 0.0000000000e+00 0.0000e+00 9.0000e+00
       22  1    1    2    0    0 +1.8203605000e+01 -1.9705870000e+01 +2.0142353000e+01 3.3547085000e+01 0.0000000000e+00 0.0000e+00 9.0000e+00
       21  1    1    2  502  501 +1.6674561000e-01 +1.1842782000e+01 -4.4615379000e+01 4.6160712000e+01 0.0000000000e+00 0.0000e+00 9.0000e+00
#aMCatNLO 1  0  0  2  2 0.57901916E+02 0.00000000E+00 -9  7  0 0.00000000E+00 0.00000000E+00 0.00000000E+00 0.00000000E+00 0.00000000E+00
<rwgt>
<wgt id='1001'> +9.9973000e+01 </wgt>
<wgt id='1002'> +9.6307000e+01 </wgt>
<wgt id='1003'> +1.0032000e+02 </wgt>
<wgt id='1004'> +1.0739000e+02 </wgt>
<wgt id='1005'> +1.0370000e+02 </wgt>
<wgt id='1006'> +1.0730000e+02 </wgt>
<wgt id='1007'> +9.1031000e+01 </wgt>
<wgt id='1008'> +8.7487000e+01 </wgt>
<wgt id='1009'> +9.1731000e+01 </wgt>
<wgt id='1010'> +9.9973000e+01 </wgt>
<wgt id='1011'> +9.0763000e+01 </wgt>
<wgt id='1012'> +1.0094000e+02 </wgt>
<wgt id='1013'> +1.0344000e+02 </wgt>
<wgt id='1014'> +1.0270000e+02 </wgt>
<wgt id='1015'> +9.3777000e+01 </wgt>
<wgt id='1016'> +9.5889000e+01 </wgt>
<wgt id='1017'> +1.0161000e+02 </wgt>
<wgt id='1018'> +9.8528000e+01 </wgt>
<wgt id='1019'> +1.0052000e+02 </wgt>
<wgt id='1020'> +9.6924000e+01 </wgt>
<wgt id='1021'> +9.7483000e+01 </wgt>
<wgt id='1022'> +1.0057000e+02 </wgt>
<wgt id='1023'> +1.0423000e+02 </wgt>
<wgt id='1024'> +1.0089000e+02 </wgt>
<wgt id='1025'> +9.8239000e+01 </wgt>
<wgt id='1026'> +9.9315000e+01 </wgt>
<wgt id='1027'> +9.7265000e+01 </wgt>
<wgt id='1028'> +9.5906000e+01 </wgt>
<wgt id='1029'> +9.8957000e+01 </wgt>
<wgt id='1030'> +1.0480000e+02 </wgt>
<wgt id='1031'> +1.0322000e+02 </wgt>
<wgt id='1032'> +9.9969000e+01 </wgt>
<wgt id='1033'> +1.0192000e+02 </wgt>
<wgt id='1034'> +1.0550000e+02 </wgt>
<wgt id='1035'> +1.0287000e+02 </wgt>
<wgt id='1036'> +9.7551000e+01 </wgt>
<wgt id='1037'> +9.9471000e+01 </wgt>
<wgt id='1038'> +1.0278000e+02 </wgt>
<wgt id='1039'> +9.9637000e+01 </wgt>
<wgt id='1040'> +1.0305000e+02 </wgt>
<wgt id='1041'> +1.0508000e+02 </wgt>
<wgt id='1042'> +9.7260000e+01 </wgt>
<wgt id='1043'> +1.0079000e+02 </wgt>
<wgt id='1044'> +9.9799000e+01 </wgt>
<wgt id='1045'> +1.0440000e+02 </wgt>
<wgt id='1046'> +1.0047000e+02 </wgt>
<wgt id='1047'> +1.0044000e+02 </wgt>
<wgt id='1048'> +9.4913000e+01 </wgt>
<wgt id='1049'> +9.7265000e+01 </wgt>
<wgt id='1050'> +1.0181000e+02 </wgt>
<wgt id='1051'> +9.9869000e+01 </wgt>
<wgt id='1052'> +9.9687000e+01 </wgt>
<wgt id='1053'> +1.0135000e+02 </wgt>
<wgt id='1054'> +9.7798000e+01 </wgt>
<wgt id='1055'> +1.0035000e+02 </wgt>
<wgt id='1056'> +9.7865000e+01 </wgt>
<wgt id='1057'> +9.5632000e+01 </wgt>
<wgt id='1058'> +9.9171000e+01 </wgt>
<wgt id='1059'> +1.0194000e+02 </wgt>
<wgt id='1060'> +1.0239000e+02 </wgt>
<wgt id='1061'> +1.0124000e+02 </wgt>
<wgt id='1062'> +9.9959000e+01 </wgt>
<wgt id='1063'> +9.7811000e+01 </wgt>
<wgt id='1064'> +9.9653000e+01 </wgt>
<wgt id='1065'> +1.0164000e+02 </wgt>
<wgt id='1066'> +9.6893000e+01 </wgt>
<wgt id='1067'> +1.0152000e+02 </wgt>
<wgt id='1068'> +1.0074000e+02 </wgt>
<wgt id='1069'> +1.0182000e+02 </wgt>
<wgt id='1070'> +1.0135000e+02 </wgt>
<wgt id='1071'> +1.0013000e+02 </wgt>
<wgt id='1072'> +1.0149000e+02 </wgt>
<wgt id='1073'> +1.0086000e+02 </wgt>
<wgt id='1074'> +9.4523000e+01 </wgt>
<wgt id='1075'> +1.0385000e+02 </wgt>
<wgt id='1076'> +1.0234000e+02 </wgt>
<wgt id='1077'> +9.6538000e+01 </wgt>
<wgt id='1078'> +9.9876000e+01 </wgt>
<wgt id='1079'> +9.9938000e+01 </wgt>
<wgt id='1080'> +1.0037000e+02 </wgt>
<wgt id='1081'> +9.8895000e+01 </wgt>
<wgt id='1082'> +9.7348000e+01 </wgt>
<wgt id='1083'> +9.4473000e+01 </wgt>
<wgt id='1084'> +1.0320000e+02 </wgt>
<wgt id='1085'> +9.9992000e+01 </wgt>
<wgt id='1086'> +1.0062000e+02 </wgt>
<wgt id='1087'> +1.0108000e+02 </wgt>
<wgt id='1088'> +9.8982000e+01 </wgt>
<wgt id='1089'> +9.9232000e+01 </wgt>
<wgt id='1090'> +1.0219000e+02 </wgt>
<wgt id='1091'> +1.0190000e+02 </wgt>
<wgt id='1092'> +1.0329000e+02 </wgt>
<wgt id='1093'> +9.7315000e+01 </wgt>
<wgt id='1094'> +1.0196000e+02 </wgt>
<wgt id='1095'> +1.0100000e+02 </wgt>
<wgt id='1096'> +1.0057000e+02 </wgt>
<wgt id='1097'> +1.0119000e+02 </wgt>
<wgt id='1098'> +9.9398000e+01 </wgt>
<wgt id='1099'> +9.9404000e+01 </wgt>
<wgt id='1100'> +1.0301000e+02 </wgt>
<wgt id='1101'> +1.0086000e+02 </wgt>
<wgt id='1102'> +1.0249000e+02 </wgt>
<wgt id='1103'> +9.9591000e+01 </wgt>
<wgt id='1104'> +9.7356000e+01 </wgt>
<wgt id='1105'> +9.4367000e+01 </wgt>
<wgt id='1106'> +9.7921000e+01 </wgt>
<wgt id='1107'> +1.0026000e+02 </wgt>
<wgt id='1108'> +1.0286000e+02 </wgt>
<wgt id='1109'> +1.0153000e+02 </wgt>
<wgt id='1110'> +9.6239000e+01 </wgt>
<wgt id='1111'> +9.8480000e+01 </wgt>
<wgt id='1112'> +1.0136000e+02 </wgt>
<wgt id='rwgt_1'> +2.1163943e-02 </wgt>
<wgt id='rwgt_2'> +2.1163943e-02 </wgt>
<wgt id='rwgt_3'> +1.9047548e-01 </wgt>
<wgt id='rwgt_4'> +1.9047548e-01 </wgt>
<wgt id='rwgt_5'> +5.2909857e-01 </wgt>
<wgt id='rwgt_6'> +5.2909857e-01 </wgt>
<wgt id='rwgt_7'> +1.8793220e+00 </wgt>
<wgt id='rwgt_8'> +1.8793220e+00 </wgt>
<wgt id='rwgt_9'> +7.5172880e+00 </wgt>
<wgt id='rwgt_10'> +7.5172880e+00 </wgt>
<wgt id='rwgt_11'> +1.6913898e+01 </wgt>
<wgt id='rwgt_12'> +1.6913898e+01 </wgt>
<wgt id='rwgt_13'> +1.8793220e+00 </wgt>
<wgt id='rwgt_14'> +1.8793220e+00 </wgt>
<wgt id='rwgt_15'> +7.5172880e+00 </wgt>
<wgt id='rwgt_16'> +7.5172880e+00 </wgt>
<wgt id='rwgt_17'> +1.6913898e+01 </wgt>
<wgt id='rwgt_18'> +1.6913898e+01 </wgt>
<wgt id='rwgt_19'> +5.4179692e-02 </wgt>
<wgt id='rwgt_20'> +5.4179692e-02 </wgt>
<wgt id='rwgt_21'> +2.1671877e-01 </wgt>
<wgt id='rwgt_22'> +2.1671877e-01 </wgt>
<wgt id='rwgt_23'> +4.8761723e-01 </wgt>
<wgt id='rwgt_24'> +4.8761723e-01 </wgt>
<wgt id='rwgt_25'> +1.8793220e+00 </wgt>
<wgt id='rwgt_26'> +1.8793220e+00 </wgt>
<wgt id='rwgt_27'> +7.5172879e+00 </wgt>
<wgt id='rwgt_28'> +7.5172879e+00 </wgt>
<wgt id='rwgt_29'> +1.6913898e+01 </wgt>
<wgt id='rwgt_30'> +1.6913898e+01 </wgt>
<wgt id='rwgt_31'> +8.2223028e+00 </wgt>
<wgt id='rwgt_32'> +2.1163943e-02 </wgt>
<wgt id='rwgt_33'> +2.1163943e-02 </wgt>
<wgt id='rwgt_34'> +6.8546012e+00 </wgt>
<wgt id='rwgt_35'> +1.7960838e+01 </wgt>
<wgt id='rwgt_36'> +1.5585606e+00 </wgt>
<wgt id='rwgt_37'> +2.2424113e+00 </wgt>
<wgt id='rwgt_38'> +1.5909286e+01 </wgt>
<wgt id='rwgt_39'> +3.1458018e+01 </wgt>
<wgt id='rwgt_40'> +6.8546012e+00 </wgt>
<wgt id='rwgt_41'> +8.2223028e+00 </wgt>
<wgt id='rwgt_42'> +2.8722615e+01 </wgt>
<wgt id='rwgt_43'> +2.2424113e+00 </wgt>
<wgt id='rwgt_44'> +1.5585606e+00 </wgt>
<wgt id='rwgt_45'> +1.7960838e+01 </wgt>
<wgt id='rwgt_46'> +2.2424113e+00 </wgt>
<wgt id='rwgt_47'> +1.5585606e+00 </wgt>
<wgt id='rwgt_48'> +1.5909286e+01 </wgt>
<wgt id='rwgt_49'> +3.1458018e+01 </wgt>
<wgt id='rwgt_50'> +2.1163943e-02 </wgt>
<wgt id='rwgt_51'> +2.1163943e-02 </wgt>
<wgt id='rwgt_52'> +2.8722615e+01 </wgt>
<wgt id='rwgt_53'> +4.8713841e+01 </wgt>
<wgt id='rwgt_54'> +1.5585606e+00 </wgt>
<wgt id='rwgt_55'> +2.2424113e+00 </wgt>
<wgt id='rwgt_56'> +4.5294587e+01 </wgt>
<wgt id='rwgt_57'> +8.2223028e+00 </wgt>
<wgt id='rwgt_58'> +6.8546012e+00 </wgt>
<wgt id='rwgt_59'> +3.1458018e+01 </wgt>
<wgt id='rwgt_60'> +8.2223028e+00 </wgt>
<wgt id='rwgt_61'> +6.8546012e+00 </wgt>
<wgt id='rwgt_62'> +2.8722615e+01 </wgt>
<wgt id='rwgt_63'> +4.8713841e+01 </wgt>
<wgt id='rwgt_64'> +2.2424113e+00 </wgt>
<wgt id='rwgt_65'> +1.5585606e+00 </wgt>
<wgt id='rwgt_66'> +4.5294587e+01 </wgt>
<wgt id='rwgt_67'> +6.9728309e+01 </wgt>
<wgt id='rwgt_68'> +2.1163943e-02 </wgt>
<wgt id='rwgt_69'> +2.1163943e-02 </wgt>
<wgt id='rwgt_70'> +6.5625204e+01 </wgt>
<wgt id='rwgt_71'> +1.7960838e+01 </wgt>
<wgt id='rwgt_72'> +1.5909286e+01 </wgt>
<wgt id='rwgt_73'> +2.2424113e+00 </wgt>
<wgt id='rwgt_74'> +1.5585606e+00 </wgt>
<wgt id='rwgt_75'> +8.2223028e+00 </wgt>
<wgt id='rwgt_76'> +6.8546012e+00 </wgt>
<wgt id='rwgt_77'> +1.7960838e+01 </wgt>
<wgt id='rwgt_78'> +1.5909286e+01 </wgt>
<wgt id='rwgt_79'> +2.1163943e-02 </wgt>
<wgt id='rwgt_80'> +6.8546012e+00 </wgt>
<wgt id='rwgt_81'> +2.1163943e-02 </wgt>
<wgt id='rwgt_82'> +2.1163943e-02 </wgt>
<wgt id='rwgt_83'> +8.2223028e+00 </wgt>
<wgt id='rwgt_84'> +1.5909286e+01 </wgt>
<wgt id='rwgt_85'> +2.2424113e+00 </wgt>
<wgt id='rwgt_86'> +1.5585606e+00 </wgt>
<wgt id='rwgt_87'> +1.7960838e+01 </wgt>
<wgt id='rwgt_88'> +2.8722615e+01 </wgt>
<wgt id='rwgt_89'> +8.2223028e+00 </wgt>
<wgt id='rwgt_90'> +6.8546012e+00 </wgt>
<wgt id='rwgt_91'> +3.1458018e+01 </wgt>
<wgt id='rwgt_92'> +1.5585606e+00 </wgt>
<wgt id='rwgt_93'> +2.2424113e+00 </wgt>
<wgt id='rwgt_94'> +1.5909286e+01 </wgt>
<wgt id='rwgt_95'> +1.5585606e+00 </wgt>
<wgt id='rwgt_96'> +2.2424113e+00 </wgt>
<wgt id='rwgt_97'> +1.7960838e+01 </wgt>
<wgt id='rwgt_98'> +2.8722615e+01 </wgt>
<wgt id='rwgt_99'> +2.1163943e-02 </wgt>
<wgt id='rwgt_100'> +2.1163943e-02 </wgt>
<wgt id='rwgt_101'> +3.1458018e+01 </wgt>
<wgt id='rwgt_102'> +4.5294587e+01 </wgt>
<wgt id='rwgt_103'> +2.2424113e+00 </wgt>
<wgt id='rwgt_104'> +1.5585606e+00 </wgt>
<wgt id='rwgt_105'> +4.8713841e+01 </wgt>
<wgt id='rwgt_106'> +6.8546012e+00 </wgt>
<wgt id='rwgt_107'> +8.2223028e+00 </wgt>
<wgt id='rwgt_108'> +2.8722615e+01 </wgt>
<wgt id='rwgt_109'> +6.8546012e+00 </wgt>
<wgt id='rwgt_110'> +8.2223028e+00 </wgt>
<wgt id='rwgt_111'> +3.1458018e+01 </wgt>
<wgt id='rwgt_112'> +4.5294587e+01 </wgt>
<wgt id='rwgt_113'> +1.5585606e+00 </wgt>
<wgt id='rwgt_114'> +2.2424113e+00 </wgt>
<wgt id='rwgt_115'> +4.8713841e+01 </wgt>
<wgt id='rwgt_116'> +6.5625204e+01 </wgt>
<wgt id='rwgt_117'> +2.1163943e-02 </wgt>
<wgt id='rwgt_118'> +2.1163943e-02 </wgt>
<wgt id='rwgt_119'> +6.9728309e+01 </wgt>
<wgt id='rwgt_120'> +1.5909286e+01 </wgt>
<wgt id='rwgt_121'> +1.7960838e+01 </wgt>
<wgt id='rwgt_122'> +1.5585606e+00 </wgt>
<wgt id='rwgt_123'> +2.2424113e+00 </wgt>
<wgt id='rwgt_124'> +6.8546012e+00 </wgt>
<wgt id='rwgt_125'> +8.2223028e+00 </wgt>
<wgt id='rwgt_126'> +1.5909286e+01 </wgt>
<wgt id='rwgt_127'> +1.7960838e+01 </wgt>
<wgt id='rwgt_128'> +2.1163943e-02 </wgt>
<wgt id='rwgt_129'> +9.7593159e+00 </wgt>
<wgt id='rwgt_130'> +1.9047548e-01 </wgt>
<wgt id='rwgt_131'> +1.9047548e-01 </wgt>
<wgt id='rwgt_132'> +5.6562112e+00 </wgt>
<wgt id='rwgt_133'> +2.0181702e+01 </wgt>
<wgt id='rwgt_134'> +1.0440213e+00 </wgt>
<wgt id='rwgt_135'> +3.0955737e+00 </wgt>
<wgt id='rwgt_136'> +1.4027045e+01 </wgt>
<wgt id='rwgt_137'> +3.4362732e+01 </wgt>
<wgt id='rwgt_138'> +5.6562112e+00 </wgt>
<wgt id='rwgt_139'> +9.7593159e+00 </wgt>
<wgt id='rwgt_140'> +2.6156523e+01 </wgt>
<wgt id='rwgt_141'> +3.0955737e+00 </wgt>
<wgt id='rwgt_142'> +1.0440213e+00 </wgt>
<wgt id='rwgt_143'> +2.0181702e+01 </wgt>
<wgt id='rwgt_144'> +3.0955737e+00 </wgt>
<wgt id='rwgt_145'> +1.0440213e+00 </wgt>
<wgt id='rwgt_146'> +1.4027045e+01 </wgt>
<wgt id='rwgt_147'> +3.4362732e+01 </wgt>
<wgt id='rwgt_148'> +1.9047548e-01 </wgt>
<wgt id='rwgt_149'> +1.9047548e-01 </wgt>
<wgt id='rwgt_150'> +2.6156523e+01 </wgt>
<wgt id='rwgt_151'> +5.2302407e+01 </wgt>
<wgt id='rwgt_152'> +1.0440213e+00 </wgt>
<wgt id='rwgt_153'> +3.0955737e+00 </wgt>
<wgt id='rwgt_154'> +4.2044645e+01 </wgt>
<wgt id='rwgt_155'> +9.7593159e+00 </wgt>
<wgt id='rwgt_156'> +5.6562112e+00 </wgt>
<wgt id='rwgt_157'> +3.4362732e+01 </wgt>
<wgt id='rwgt_158'> +9.7593159e+00 </wgt>
<wgt id='rwgt_159'> +5.6562112e+00 </wgt>
<wgt id='rwgt_160'> +2.6156523e+01 </wgt>
<wgt id='rwgt_161'> +5.2302407e+01 </wgt>
<wgt id='rwgt_162'> +3.0955737e+00 </wgt>
<wgt id='rwgt_163'> +1.0440213e+00 </wgt>
<wgt id='rwgt_164'> +4.2044645e+01 </wgt>
<wgt id='rwgt_165'> +7.4000725e+01 </wgt>
<wgt id='rwgt_166'> +1.9047548e-01 </wgt>
<wgt id='rwgt_167'> +1.9047548e-01 </wgt>
<wgt id='rwgt_168'> +6.1691411e+01 </wgt>
<wgt id='rwgt_169'> +2.0181702e+01 </wgt>
<wgt id='rwgt_170'> +1.4027045e+01 </wgt>
<wgt id='rwgt_171'> +3.0955737e+00 </wgt>
<wgt id='rwgt_172'> +1.0440213e+00 </wgt>
<wgt id='rwgt_173'> +9.7593159e+00 </wgt>
<wgt id='rwgt_174'> +5.6562112e+00 </wgt>
<wgt id='rwgt_175'> +2.0181702e+01 </wgt>
<wgt id='rwgt_176'> +1.4027045e+01 </wgt>
<wgt id='rwgt_177'> +1.9047548e-01 </wgt>
<wgt id='rwgt_178'> +5.6562112e+00 </wgt>
<wgt id='rwgt_179'> +1.9047548e-01 </wgt>
<wgt id='rwgt_180'> +1.9047548e-01 </wgt>
<wgt id='rwgt_181'> +9.7593159e+00 </wgt>
<wgt id='rwgt_182'> +1.4027045e+01 </wgt>
<wgt id='rwgt_183'> +3.0955737e+00 </wgt>
<wgt id='rwgt_184'> +1.0440213e+00 </wgt>
<wgt id='rwgt_185'> +2.0181702e+01 </wgt>
<wgt id='rwgt_186'> +2.6156523e+01 </wgt>
<wgt id='rwgt_187'> +9.7593159e+00 </wgt>
<wgt id='rwgt_188'> +5.6562112e+00 </wgt>
<wgt id='rwgt_189'> +3.4362732e+01 </wgt>
<wgt id='rwgt_190'> +1.0440213e+00 </wgt>
<wgt id='rwgt_191'> +3.0955737e+00 </wgt>
<wgt id='rwgt_192'> +1.4027045e+01 </wgt>
<wgt id='rwgt_193'> +1.0440213e+00 </wgt>
<wgt id='rwgt_194'> +3.0955737e+00 </wgt>
<wgt id='rwgt_195'> +2.0181702e+01 </wgt>
<wgt id='rwgt_196'> +2.6156523e+01 </wgt>
<wgt id='rwgt_197'> +1.9047548e-01 </wgt>
<wgt id='rwgt_198'> +1.9047548e-01 </wgt>
<wgt id='rwgt_199'> +3.4362732e+01 </wgt>
<wgt id='rwgt_200'> +4.2044645e+01 </wgt>
<wgt id='rwgt_201'> +3.0955737e+00 </wgt>
<wgt id='rwgt_202'> +1.0440213e+00 </wgt>
<wgt id='rwgt_203'> +5.2302407e+01 </wgt>
<wgt id='rwgt_204'> +5.6562112e+00 </wgt>
<wgt id='rwgt_205'> +9.7593159e+00 </wgt>
<wgt id='rwgt_206'> +2.6156523e+01 </wgt>
<wgt id='rwgt_207'> +5.6562112e+00 </wgt>
<wgt id='rwgt_208'> +9.7593159e+00 </wgt>
<wgt id='rwgt_209'> +3.4362732e+01 </wgt>
<wgt id='rwgt_210'> +4.2044645e+01 </wgt>
<wgt id='rwgt_211'> +1.0440213e+00 </wgt>
<wgt id='rwgt_212'> +3.0955737e+00 </wgt>
<wgt id='rwgt_213'> +5.2302407e+01 </wgt>
<wgt id='rwgt_214'> +6.1691411e+01 </wgt>
<wgt id='rwgt_215'> +1.9047548e-01 </wgt>
<wgt id='rwgt_216'> +1.9047548e-01 </wgt>
<wgt id='rwgt_217'> +7.4000725e+01 </wgt>
<wgt id='rwgt_218'> +1.4027045e+01 </wgt>
<wgt id='rwgt_219'> +2.0181702e+01 </wgt>
<wgt id='rwgt_220'> +1.0440213e+00 </wgt>
<wgt id='rwgt_221'> +3.0955737e+00 </wgt>
<wgt id='rwgt_222'> +5.6562112e+00 </wgt>
<wgt id='rwgt_223'> +9.7593159e+00 </wgt>
<wgt id='rwgt_224'> +1.4027045e+01 </wgt>
<wgt id='rwgt_225'> +2.0181702e+01 </wgt>
<wgt id='rwgt_226'> +1.9047548e-01 </wgt>
<wgt id='rwgt_227'> +1.1465641e+01 </wgt>
<wgt id='rwgt_228'> +5.2909857e-01 </wgt>
<wgt id='rwgt_229'> +5.2909857e-01 </wgt>
<wgt id='rwgt_230'> +4.6271327e+00 </wgt>
<wgt id='rwgt_231'> +2.2571878e+01 </wgt>
<wgt id='rwgt_232'> +6.9879362e-01 </wgt>
<wgt id='rwgt_233'> +4.1180475e+00 </wgt>
<wgt id='rwgt_234'> +1.2314116e+01 </wgt>
<wgt id='rwgt_235'> +3.7436759e+01 </wgt>
<wgt id='rwgt_236'> +4.6271327e+00 </wgt>
<wgt id='rwgt_237'> +1.1465641e+01 </wgt>
<wgt id='rwgt_238'> +2.3759743e+01 </wgt>
<wgt id='rwgt_239'> +4.1180475e+00 </wgt>
<wgt id='rwgt_240'> +6.9879362e-01 </wgt>
<wgt id='rwgt_241'> +2.2571878e+01 </wgt>
<wgt id='rwgt_242'> +4.1180475e+00 </wgt>
<wgt id='rwgt_243'> +6.9879362e-01 </wgt>
<wgt id='rwgt_244'> +1.2314116e+01 </wgt>
<wgt id='rwgt_245'> +3.7436759e+01 </wgt>
<wgt id='rwgt_246'> +5.2909857e-01 </wgt>
<wgt id='rwgt_247'> +5.2909857e-01 </wgt>
<wgt id='rwgt_248'> +2.3759743e+01 </wgt>
<wgt id='rwgt_249'> +5.6060284e+01 </wgt>
<wgt id='rwgt_250'> +6.9879362e-01 </wgt>
<wgt id='rwgt_251'> +4.1180475e+00 </wgt>
<wgt id='rwgt_252'> +3.8964014e+01 </wgt>
<wgt id='rwgt_253'> +1.1465641e+01 </wgt>
<wgt id='rwgt_254'> +4.6271327e+00 </wgt>
<wgt id='rwgt_255'> +3.7436759e+01 </wgt>
<wgt id='rwgt_256'> +1.1465641e+01 </wgt>
<wgt id='rwgt_257'> +4.6271327e+00 </wgt>
<wgt id='rwgt_258'> +2.3759743e+01 </wgt>
<wgt id='rwgt_259'> +5.6060284e+01 </wgt>
<wgt id='rwgt_260'> +4.1180475e+00 </wgt>
<wgt id='rwgt_261'> +6.9879362e-01 </wgt>
<wgt id='rwgt_262'> +3.8964014e+01 </wgt>
<wgt id='rwgt_263'> +7.8442453e+01 </wgt>
<wgt id='rwgt_264'> +5.2909857e-01 </wgt>
<wgt id='rwgt_265'> +5.2909857e-01 </wgt>
<wgt id='rwgt_266'> +5.7926929e+01 </wgt>
<wgt id='rwgt_267'> +2.2571878e+01 </wgt>
<wgt id='rwgt_268'> +1.2314116e+01 </wgt>
<wgt id='rwgt_269'> +4.1180475e+00 </wgt>
<wgt id='rwgt_270'> +6.9879362e-01 </wgt>
<wgt id='rwgt_271'> +1.1465641e+01 </wgt>
<wgt id='rwgt_272'> +4.6271327e+00 </wgt>
<wgt id='rwgt_273'> +2.2571878e+01 </wgt>
<wgt id='rwgt_274'> +1.2314116e+01 </wgt>
<wgt id='rwgt_275'> +5.2909857e-01 </wgt>
<wgt id='rwgt_276'> +4.6271327e+00 </wgt>
<wgt id='rwgt_277'> +5.2909857e-01 </wgt>
<wgt id='rwgt_278'> +5.2909857e-01 </wgt>
<wgt id='rwgt_279'> +1.1465641e+01 </wgt>
<wgt id='rwgt_280'> +1.2314116e+01 </wgt>
<wgt id='rwgt_281'> +4.1180475e+00 </wgt>
<wgt id='rwgt_282'> +6.9879362e-01 </wgt>
<wgt id='rwgt_283'> +2.2571878e+01 </wgt>
<wgt id='rwgt_284'> +2.3759743e+01 </wgt>
<wgt id='rwgt_285'> +1.1465641e+01 </wgt>
<wgt id='rwgt_286'> +4.6271327e+00 </wgt>
<wgt id='rwgt_287'> +3.7436759e+01 </wgt>
<wgt id='rwgt_288'> +6.9879362e-01 </wgt>
<wgt id='rwgt_289'> +4.1180475e+00 </wgt>
<wgt id='rwgt_290'> +1.2314116e+01 </wgt>
<wgt id='rwgt_291'> +6.9879362e-01 </wgt>
<wgt id='rwgt_292'> +4.1180475e+00 </wgt>
<wgt id='rwgt_293'> +2.2571878e+01 </wgt>
<wgt id='rwgt_294'> +2.3759743e+01 </wgt>
<wgt id='rwgt_295'> +5.2909857e-01 </wgt>
<wgt id='rwgt_296'> +5.2909857e-01 </wgt>
<wgt id='rwgt_297'> +3.7436759e+01 </wgt>
<wgt id='rwgt_298'> +3.8964014e+01 </wgt>
<wgt id='rwgt_299'> +4.1180475e+00 </wgt>
<wgt id='rwgt_300'> +6.9879362e-01 </wgt>
<wgt id='rwgt_301'> +5.6060284e+01 </wgt>
<wgt id='rwgt_302'> +4.6271327e+00 </wgt>
<wgt id='rwgt_303'> +1.1465641e+01 </wgt>
<wgt id='rwgt_304'> +2.3759743e+01 </wgt>
<wgt id='rwgt_305'> +4.6271327e+00 </wgt>
<wgt id='rwgt_306'> +1.1465641e+01 </wgt>
<wgt id='rwgt_307'> +3.7436759e+01 </wgt>
<wgt id='rwgt_308'> +3.8964014e+01 </wgt>
<wgt id='rwgt_309'> +6.9879362e-01 </wgt>
<wgt id='rwgt_310'> +4.1180475e+00 </wgt>
<wgt id='rwgt_311'> +5.6060284e+01 </wgt>
<wgt id='rwgt_312'> +5.7926929e+01 </wgt>
<wgt id='rwgt_313'> +5.2909857e-01 </wgt>
<wgt id='rwgt_314'> +5.2909857e-01 </wgt>
<wgt id='rwgt_315'> +7.8442453e+01 </wgt>
<wgt id='rwgt_316'> +1.2314116e+01 </wgt>
<wgt id='rwgt_317'> +2.2571878e+01 </wgt>
<wgt id='rwgt_318'> +6.9879362e-01 </wgt>
<wgt id='rwgt_319'> +4.1180475e+00 </wgt>
<wgt id='rwgt_320'> +4.6271327e+00 </wgt>
<wgt id='rwgt_321'> +1.1465641e+01 </wgt>
<wgt id='rwgt_322'> +1.2314116e+01 </wgt>
<wgt id='rwgt_323'> +2.2571878e+01 </wgt>
<wgt id='rwgt_324'> +5.2909857e-01 </wgt>
<wgt id='rwgt_325'> +7.5172880e+00 </wgt>
<wgt id='rwgt_326'> +0.0000000e+00 </wgt>
<wgt id='rwgt_327'> +0.0000000e+00 </wgt>
<wgt id='rwgt_328'> +7.5172880e+00 </wgt>
<wgt id='rwgt_329'> +1.6913898e+01 </wgt>
<wgt id='rwgt_330'> +1.8793220e+00 </wgt>
<wgt id='rwgt_331'> +1.8793220e+00 </wgt>
<wgt id='rwgt_332'> +1.6913898e+01 </wgt>
<wgt id='rwgt_333'> +3.0069152e+01 </wgt>
<wgt id='rwgt_334'> +7.5172880e+00 </wgt>
<wgt id='rwgt_335'> +7.5172880e+00 </wgt>
<wgt id='rwgt_336'> +3.0069152e+01 </wgt>
<wgt id='rwgt_337'> +1.8793220e+00 </wgt>
<wgt id='rwgt_338'> +1.8793220e+00 </wgt>
<wgt id='rwgt_339'> +1.6913898e+01 </wgt>
<wgt id='rwgt_340'> +1.8793220e+00 </wgt>
<wgt id='rwgt_341'> +1.8793220e+00 </wgt>
<wgt id='rwgt_342'> +1.6913898e+01 </wgt>
<wgt id='rwgt_343'> +3.0069152e+01 </wgt>
<wgt id='rwgt_344'> +0.0000000e+00 </wgt>
<wgt id='rwgt_345'> +0.0000000e+00 </wgt>
<wgt id='rwgt_346'> +3.0069152e+01 </wgt>
<wgt id='rwgt_347'> +4.6983050e+01 </wgt>
<wgt id='rwgt_348'> +1.8793220e+00 </wgt>
<wgt id='rwgt_349'> +1.8793220e+00 </wgt>
<wgt id='rwgt_350'> +4.6983050e+01 </wgt>
<wgt id='rwgt_351'> +7.5172880e+00 </wgt>
<wgt id='rwgt_352'> +7.5172880e+00 </wgt>
<wgt id='rwgt_353'> +3.0069152e+01 </wgt>
<wgt id='rwgt_354'> +7.5172880e+00 </wgt>
<wgt id='rwgt_355'> +7.5172880e+00 </wgt>
<wgt id='rwgt_356'> +3.0069152e+01 </wgt>
<wgt id='rwgt_357'> +4.6983050e+01 </wgt>
<wgt id='rwgt_358'> +1.8793220e+00 </wgt>
<wgt id='rwgt_359'> +1.8793220e+00 </wgt>
<wgt id='rwgt_360'> +4.6983050e+01 </wgt>
<wgt id='rwgt_361'> +6.7655592e+01 </wgt>
<wgt id='rwgt_362'> +0.0000000e+00 </wgt>
<wgt id='rwgt_363'> +0.0000000e+00 </wgt>
<wgt id='rwgt_364'> +6.7655592e+01 </wgt>
<wgt id='rwgt_365'> +1.6913898e+01 </wgt>
<wgt id='rwgt_366'> +1.6913898e+01 </wgt>
<wgt id='rwgt_367'> +1.8793220e+00 </wgt>
<wgt id='rwgt_368'> +1.8793220e+00 </wgt>
<wgt id='rwgt_369'> +7.5172880e+00 </wgt>
<wgt id='rwgt_370'> +7.5172880e+00 </wgt>
<wgt id='rwgt_371'> +1.6913898e+01 </wgt>
<wgt id='rwgt_372'> +1.6913898e+01 </wgt>
<wgt id='rwgt_373'> +0.0000000e+00 </wgt>
</rwgt>
</event>
</LesHouchesEvents>
