<LesHouchesEvents version="3.0">
<header>
<!--
#*********************************************************************
#                                                                    *
#                         MadGraph5_aMC@NLO                          *
#                                                                    *
#                   http://madgraph.hep.uiuc.edu                     *
#                   http://madgraph.phys.ucl.ac.be                   *
#                   http://amcatnlo.cern.ch                          *
#                                                                    *
#                     The MadGraph5_aMC@NLO team                     *
#                                                                    *
#....................................................................*
#                                                                    *
# This file contains all the information necessary to reproduce      *
# the events generated                                               *
#                                                                    *
# 1. software version                                                *
# 2. proc_card.dat      : code generation info including model       *
# 3. param_card.dat     : model primary parameters in the LH format  *
# 4. run_card.dat       : running parameters (collider and cuts)     *
#                                                                    *
#                                                                    *
#*********************************************************************
-->
<MGVersion>
#5.2.6.0
</MGVersion>
<MG5ProcCard>
<![CDATA[
#************************************************************                                                                                         
#*                     MadGraph5_aMC@NLO                    *                                                                                         
#*                                                          *                                                                                         
#*                *                       *                 *                                                                                         
#*                  *        * *        *                   *                                                                                         
#*                    * * * * 5 * * * *                     *                                                                                         
#*                  *        * *        *                   *                                                                                         
#*                *                       *                 *                                                                                         
#*                                                          *                                                                                         
#*                                                          *                                                                                         
#*         VERSION 2.6.0                 2017-08-16         *                                                                                         
#*                                                          *                                                                                         
#*    The MadGraph5_aMC@NLO Development Team - Find us at   *                                                                                         
#*    https://server06.fynu.ucl.ac.be/projects/madgraph     *                                                                                         
#*                                                          *                                                                                         
#************************************************************                                                                                         
#*                                                          *                                                                                         
#*               Command File for MadGraph5_aMC@NLO         *                                                                                         
#*                                                          *                                                                                         
#*     run as ./bin/mg5_aMC  filename                       *                                                                                         
#*                                                          *                                                                                         
#************************************************************                                                                                         
set group_subprocesses Auto                                                                                                                           
set ignore_six_quark_processes False                                                                                                                  
set loop_optimized_output True                                                                                                                        
set loop_color_flows False                                                                                                                            
set gauge unitary                                                                                                                                     
set complex_mass_scheme False                                                                                                                         
set max_npoint_for_channel 0                                                                                                                          
import model loop_sm-no_b_mass                                                                                                                        
define p = g u c d s u~ c~ d~ s~                                                                                                                      
define j = g u c d s u~ c~ d~ s~                                                                                                                      
define l+ = e+ mu+                                                                                                                                    
define l- = e- mu-                                                                                                                                    
define vl = ve vm vt                                                                                                                                  
define vl~ = ve~ vm~ vt~                                                                                                                              
define p = 21 2 4 1 3 -2 -4 -1 -3 5 -5 # pass to 5 flavors                                                                                            
define j = p                                                                                                                                          
define p = p b b~                                                                                                                                     
define j = j b b~                                                                                                                                     
define lep = e+ mu+ ta+ e- mu- ta-                                                                                                                    
generate p p > lep lep a [QCD] @0                                                                                                                     
add process p p > lep lep j a [QCD] @1                                                                                                                
output ZATo2LA01j_5f_NLO_FXFX -nojpeg
]]>
</MG5ProcCard>
<MGRunCard>
<![CDATA[
#***********************************************************************                                                                              
#                        MadGraph5_aMC@NLO                             *                                                                              
#                                                                      *                                                                              
#                      run_card.dat aMC@NLO                            *                                                                              
#                                                                      *                                                                              
#  This file is used to set the parameters of the run.                 *                                                                              
#                                                                      *                                                                              
#  Some notation/conventions:                                          *                                                                              
#                                                                      *                                                                              
#   Lines starting with a hash (#) are info or comments                *                                                                              
#                                                                      *                                                                              
#   mind the format:   value    = variable     ! comment               *                                                                              
#                                                                      *                                                                              
#   Some of the values of variables can be list. These can either be   *                                                                              
#   comma or space separated.                                          *                                                                              
#***********************************************************************                                                                              
#                                                                                                                                                     
#*******************                                                                                                                                  
# Running parameters                                                                                                                                  
#*******************                                                                                                                                  
#                                                                                                                                                     
#***********************************************************************                                                                              
# Tag name for the run (one word)                                      *                                                                              
#***********************************************************************                                                                              
  tag_1	= run_tag ! name of the run                                                                                                                   
#***********************************************************************                                                                              
# Number of LHE events (and their normalization) and the required      *                                                                              
# (relative) accuracy on the Xsec.                                     *                                                                              
# These values are ignored for fixed order runs                        *                                                                              
#***********************************************************************                                                                              
        100 = nevents                                                                                                                                 
  0.001	= req_acc ! Required accuracy (-1=auto determined from nevents)                                                                               
  25	= nevt_job ! Max number of events per job in event generation.                                                                                   
                 !  (-1= no split).                                                                                                                   
#***********************************************************************                                                                              
# Normalize the weights of LHE events such that they sum or average to *                                                                              
# the total cross section                                              *                                                                              
#***********************************************************************                                                                              
  average	= event_norm ! valid settings: average, sum, bias                                                                                           
#***********************************************************************                                                                              
# Number of points per itegration channel (ignored for aMC@NLO runs)   *                                                                              
#***********************************************************************                                                                              
  0.01	= req_acc_fo ! Required accuracy (-1=ignored, and use the                                                                                      
 	                   ! number of points and iter. below)                                                                                              
# These numbers are ignored except if req_acc_FO is equal to -1                                                                                       
  5000	= npoints_fo_grid ! number of points to setup grids                                                                                            
  4	= niters_fo_grid ! number of iter. to setup grids                                                                                                 
  10000	= npoints_fo ! number of points to compute Xsec                                                                                               
  6	= niters_fo ! number of iter. to compute Xsec                                                                                                     
#***********************************************************************                                                                              
# Random number seed                                                   *                                                                              
#***********************************************************************                                                                              
          2 =  iseed                                                                                                                                  
#***********************************************************************                                                                              
# Collider type and energy                                             *                                                                              
#***********************************************************************                                                                              
  1	= lpp1 ! beam 1 type (0 = no PDF)                                                                                                                 
  1	= lpp2 ! beam 2 type (0 = no PDF)                                                                                                                 
  6500.0	= ebeam1 ! beam 1 energy in GeV                                                                                                              
  6500.0	= ebeam2 ! beam 2 energy in GeV                                                                                                              
#***********************************************************************                                                                              
# PDF choice: this automatically fixes also alpha_s(MZ) and its evol.  *                                                                              
#***********************************************************************                                                                              
  lhapdf	= pdlabel ! PDF set                                                                                                                          
  292200	= lhaid ! If pdlabel=lhapdf, this is the lhapdf number. Only                                                                                 
              ! numbers for central PDF sets are allowed. Can be a list;                                                                              
              ! PDF sets beyond the first are included via reweighting.                                                                               
#***********************************************************************                                                                              
# Include the NLO Monte Carlo subtr. terms for the following parton    *                                                                              
# shower (HERWIG6 | HERWIGPP | PYTHIA6Q | PYTHIA6PT | PYTHIA8)         *                                                                              
# WARNING: PYTHIA6PT works only for processes without FSR!!!!          *                                                                              
#***********************************************************************                                                                              
  PYTHIA8	= parton_shower                                                                                                                             
  1.0	= shower_scale_factor ! multiply default shower starting                                                                                        
                                  ! scale by this factor                                                                                              
#***********************************************************************                                                                              
# Renormalization and factorization scales                             *                                                                              
# (Default functional form for the non-fixed scales is the sum of      *                                                                              
# the transverse masses divided by two of all final state particles    *                                                                              
# and partons. This can be changed in SubProcesses/set_scales.f or via *                                                                              
# dynamical_scale_choice option)                                       *                                                                              
#***********************************************************************                                                                              
  False	= fixed_ren_scale ! if .true. use fixed ren scale                                                                                             
  False	= fixed_fac_scale ! if .true. use fixed fac scale                                                                                             
  91.188	= mur_ref_fixed ! fixed ren reference scale                                                                                                  
  91.118	= muf_ref_fixed ! fixed fact reference scale                                                                                                 
  -1	= dynamical_scale_choice ! Choose one (or more) of the predefined                                                                                
           ! dynamical choices. Can be a list; scale choices beyond the                                                                               
           ! first are included via reweighting                                                                                                       
  1.0	= mur_over_ref ! ratio of current muR over reference muR                                                                                        
  1.0	= muf_over_ref ! ratio of current muF over reference muF                                                                                        
#***********************************************************************                                                                              
# Reweight variables for scale dependence and PDF uncertainty          *                                                                              
#***********************************************************************                                                                              
  1.0	= rw_rscale ! muR factors to be included by reweighting                                                                                         
  1.0	= rw_fscale ! muF factors to be included by reweighting                                                                                         
  True	= reweight_scale ! Reweight to get scale variation using the                                                                                   
            ! rw_rscale and rw_fscale factors. Should be a list of                                                                                    
            ! booleans of equal length to dynamical_scale_choice to                                                                                   
            ! specify for which choice to include scale dependence.                                                                                   
  True	= reweight_pdf ! Reweight to get PDF uncertainty. Should be a                                                                                  
            ! list booleans of equal length to lhaid to specify for                                                                                   
            !  which PDF set to include the uncertainties.                                                                                            
#***********************************************************************                                                                              
# Store reweight information in the LHE file for off-line model-       *                                                                              
# parameter reweighting at NLO+PS accuracy                             *                                                                              
#***********************************************************************                                                                              
  True	= store_rwgt_info ! Store info for reweighting in LHE file                                                                                     
#***********************************************************************                                                                              
# ickkw parameter:                                                     *                                                                              
#   0: No merging                                                      *                                                                              
#   3: FxFx Merging - WARNING! Applies merging only at the hard-event  *                                                                              
#      level. After showering an MLM-type merging should be applied as *                                                                              
#      well. See http://amcatnlo.cern.ch/FxFx_merging.htm for details. *                                                                              
#   4: UNLOPS merging (with pythia8 only). No interface from within    *                                                                              
#      MG5_aMC available, but available in Pythia8.                    *                                                                              
#  -1: NNLL+NLO jet-veto computation. See arxiv:1412.8408 [hep-ph].    *                                                                              
#***********************************************************************                                                                              
  3	= ickkw                                                                                                                                           
#***********************************************************************                                                                              
#                                                                                                                                                     
#***********************************************************************                                                                              
# BW cutoff (M+/-bwcutoff*Gamma). Determines which resonances are      *                                                                              
# written in the LHE event file                                        *                                                                              
#***********************************************************************                                                                              
  15.0	= bwcutoff                                                                                                                                     
#***********************************************************************                                                                              
# Cuts on the jets. Jet clustering is performed by FastJet.            *                                                                              
#  - When matching to a parton shower, these generation cuts should be *                                                                              
#    considerably softer than the analysis cuts.                       *                                                                              
#  - More specific cuts can be specified in SubProcesses/cuts.f        *                                                                              
#***********************************************************************                                                                              
  1.0	= jetalgo ! FastJet jet algorithm (1=kT, 0=C/A, -1=anti-kT)                                                                                     
  1.0	= jetradius ! The radius parameter for the jet algorithm                                                                                        
  10.0	= ptj ! Min jet transverse momentum                                                                                                            
  -1.0	= etaj ! Max jet abs(pseudo-rap) (a value .lt.0 means no cut)                                                                                  
#***********************************************************************                                                                              
# Cuts on the charged leptons (e+, e-, mu+, mu-, tau+ and tau-)        *                                                                              
# More specific cuts can be specified in SubProcesses/cuts.f           *                                                                              
#***********************************************************************                                                                              
  15.0	= ptl ! Min lepton transverse momentum                                                                                                         
  -1.0	= etal ! Max lepton abs(pseudo-rap) (a value .lt.0 means no cut)                                                                               
  0.0	= drll ! Min distance between opposite sign lepton pairs                                                                                        
  0.0	= drll_sf ! Min distance between opp. sign same-flavor lepton pairs                                                                             
  0.0	= mll ! Min inv. mass of all opposite sign lepton pairs                                                                                         
  30.0	= mll_sf ! Min inv. mass of all opp. sign same-flavor lepton pairs                                                                             
#***********************************************************************                                                                              
# Photon-isolation cuts, according to hep-ph/9801442. When ptgmin=0,   *                                                                              
# all the other parameters are ignored.                                *                                                                              
# More specific cuts can be specified in SubProcesses/cuts.f           *                                                                              
#***********************************************************************                                                                              
  15.0	= ptgmin ! Min photon transverse momentum                                                                                                      
  2.6	= etagamma ! Max photon abs(pseudo-rap)                                                                                                         
  0.05	= r0gamma ! Radius of isolation code                                                                                                           
  1.0	= xn ! n parameter of eq.(3.4) in hep-ph/9801442                                                                                                
  1.0	= epsgamma ! epsilon_gamma parameter of eq.(3.4) in hep-ph/9801442                                                                              
  True	= isoem ! isolate photons from EM energy (photons and leptons)                                                                                 
#***********************************************************************                                                                              
# For aMCfast+APPLGRID use in PDF fitting (http://amcfast.hepforge.org)*                                                                              
#***********************************************************************                                                                              
  0	= iappl ! aMCfast switch (0=OFF, 1=prepare grids, 2=fill grids)                                                                                   
#***********************************************************************                                                                              
#*********************************************************************                                                                                
#  Additional parameter                                                                                                                               
#*********************************************************************                                                                                
  292201	= pdf_set_min # hidden parameter                                                                                                             
  292302	= pdf_set_max # hidden parameter                                                                                                             
  5	= maxjetflavor # hidden parameter
]]>
</MGRunCard>
<slha>
######################################################################                                                                                
## PARAM_CARD AUTOMATICALY GENERATED BY MG5 FOLLOWING UFO MODEL   ####                                                                                
######################################################################                                                                                
##                                                                  ##                                                                                
##  Width set on Auto will be computed following the information    ##                                                                                
##        present in the decay.py files of the model.               ##                                                                                
##        See  arXiv:1402.1178 for more details.                    ##                                                                                
##                                                                  ##                                                                                
######################################################################                                                                                
                                                                                                                                                      
###################################                                                                                                                   
## INFORMATION FOR LOOP                                                                                                                               
###################################                                                                                                                   
Block loop                                                                                                                                            
    1 9.118800e+01 # MU_R                                                                                                                             
                                                                                                                                                      
###################################                                                                                                                   
## INFORMATION FOR MASS                                                                                                                               
###################################                                                                                                                   
Block mass                                                                                                                                            
    6 1.730000e+02 # MT                                                                                                                               
   15 1.777000e+00 # MTA                                                                                                                              
   23 9.118800e+01 # MZ                                                                                                                               
   25 1.250000e+02 # MH                                                                                                                               
## Dependent parameters, given by model restrictions.                                                                                                 
## Those values should be edited following the                                                                                                        
## analytical expression. MG5 ignores those values                                                                                                    
## but they are important for interfacing the output of MG5                                                                                           
## to external program such as Pythia.                                                                                                                
  1 0.000000 # d : 0.0                                                                                                                                
  2 0.000000 # u : 0.0                                                                                                                                
  3 0.000000 # s : 0.0                                                                                                                                
  4 0.000000 # c : 0.0                                                                                                                                
  5 0.000000 # b : 0.0                                                                                                                                
  11 0.000000 # e- : 0.0                                                                                                                              
  12 0.000000 # ve : 0.0                                                                                                                              
  13 0.000000 # mu- : 0.0                                                                                                                             
  14 0.000000 # vm : 0.0                                                                                                                              
  16 0.000000 # vt : 0.0                                                                                                                              
  21 0.000000 # g : 0.0                                                                                                                               
  22 0.000000 # a : 0.0                                                                                                                               
  24 80.419002 # w+ : cmath.sqrt(MZ__exp__2/2. + cmath.sqrt(MZ__exp__4/4. - (aEW*cmath.pi*MZ__exp__2)/(Gf*sqrt__2)))                                  
                                                                                                                                                      
###################################                                                                                                                   
## INFORMATION FOR SMINPUTS                                                                                                                           
###################################                                                                                                                   
Block sminputs                                                                                                                                        
    1 1.325070e+02 # aEWM1                                                                                                                            
    2 1.166390e-05 # Gf                                                                                                                               
    3 1.180000e-01 # aS                                                                                                                               
                                                                                                                                                      
###################################                                                                                                                   
## INFORMATION FOR YUKAWA                                                                                                                             
###################################                                                                                                                   
Block yukawa                                                                                                                                          
    6 1.730000e+02 # ymt                                                                                                                              
   15 1.777000e+00 # ymtau                                                                                                                            
                                                                                                                                                      
###################################                                                                                                                   
## INFORMATION FOR DECAY                                                                                                                              
###################################                                                                                                                   
DECAY   6 1.491500e+00 # WT                                                                                                                           
DECAY  23 2.441404e+00 # WZ                                                                                                                           
DECAY  24 2.047600e+00 # WW                                                                                                                           
DECAY  25 6.382339e-03 # WH                                                                                                                           
## Dependent parameters, given by model restrictions.                                                                                                 
## Those values should be edited following the                                                                                                        
## analytical expression. MG5 ignores those values                                                                                                    
## but they are important for interfacing the output of MG5                                                                                           
## to external program such as Pythia.                                                                                                                
DECAY  1 0.000000 # d : 0.0                                                                                                                           
DECAY  2 0.000000 # u : 0.0                                                                                                                           
DECAY  3 0.000000 # s : 0.0                                                                                                                           
DECAY  4 0.000000 # c : 0.0                                                                                                                           
DECAY  5 0.000000 # b : 0.0                                                                                                                           
DECAY  11 0.000000 # e- : 0.0                                                                                                                         
DECAY  12 0.000000 # ve : 0.0                                                                                                                         
DECAY  13 0.000000 # mu- : 0.0                                                                                                                        
DECAY  14 0.000000 # vm : 0.0                                                                                                                         
DECAY  15 0.000000 # ta- : 0.0                                                                                                                        
DECAY  16 0.000000 # vt : 0.0                                                                                                                         
DECAY  21 0.000000 # g : 0.0                                                                                                                          
DECAY  22 0.000000 # a : 0.0
</slha>
<montecarlomasses>
1   0.000000E+00
       2   0.000000E+00
       3   0.000000E+00
       4   0.000000E+00
       5   0.000000E+00
      11   0.000000E+00
      13   0.000000E+00
      15   0.000000E+00
      21   0.000000E+00
</montecarlomasses>
<initrwgt>
<![CDATA[
<weightgroup name='scale_variation   -1' combine='envelope'>
      <weight id='1001'> dyn=  -1 muR=0.10000E+01 muF=0.10000E+01 </weight>
    </weightgroup>
    <weightgroup name='PDF_variation NNPDF30_nlo_nf_5_pdfas' combine='unknown'>
      <weight id='1002'> PDF=  292200 NNPDF30_nlo_nf_5_pdfas </weight>
      <weight id='1003'> PDF=  292201 NNPDF30_nlo_nf_5_pdfas </weight>
      <weight id='1004'> PDF=  292202 NNPDF30_nlo_nf_5_pdfas </weight>
      <weight id='1005'> PDF=  292203 NNPDF30_nlo_nf_5_pdfas </weight>
      <weight id='1006'> PDF=  292204 NNPDF30_nlo_nf_5_pdfas </weight>
      <weight id='1007'> PDF=  292205 NNPDF30_nlo_nf_5_pdfas </weight>
      <weight id='1008'> PDF=  292206 NNPDF30_nlo_nf_5_pdfas </weight>
      <weight id='1009'> PDF=  292207 NNPDF30_nlo_nf_5_pdfas </weight>
      <weight id='1010'> PDF=  292208 NNPDF30_nlo_nf_5_pdfas </weight>
      <weight id='1011'> PDF=  292209 NNPDF30_nlo_nf_5_pdfas </weight>
      <weight id='1012'> PDF=  292210 NNPDF30_nlo_nf_5_pdfas </weight>
      <weight id='1013'> PDF=  292211 NNPDF30_nlo_nf_5_pdfas </weight>
      <weight id='1014'> PDF=  292212 NNPDF30_nlo_nf_5_pdfas </weight>
      <weight id='1015'> PDF=  292213 NNPDF30_nlo_nf_5_pdfas </weight>
      <weight id='1016'> PDF=  292214 NNPDF30_nlo_nf_5_pdfas </weight>
      <weight id='1017'> PDF=  292215 NNPDF30_nlo_nf_5_pdfas </weight>
      <weight id='1018'> PDF=  292216 NNPDF30_nlo_nf_5_pdfas </weight>
      <weight id='1019'> PDF=  292217 NNPDF30_nlo_nf_5_pdfas </weight>
      <weight id='1020'> PDF=  292218 NNPDF30_nlo_nf_5_pdfas </weight>
      <weight id='1021'> PDF=  292219 NNPDF30_nlo_nf_5_pdfas </weight>
      <weight id='1022'> PDF=  292220 NNPDF30_nlo_nf_5_pdfas </weight>
      <weight id='1023'> PDF=  292221 NNPDF30_nlo_nf_5_pdfas </weight>
      <weight id='1024'> PDF=  292222 NNPDF30_nlo_nf_5_pdfas </weight>
      <weight id='1025'> PDF=  292223 NNPDF30_nlo_nf_5_pdfas </weight>
      <weight id='1026'> PDF=  292224 NNPDF30_nlo_nf_5_pdfas </weight>
      <weight id='1027'> PDF=  292225 NNPDF30_nlo_nf_5_pdfas </weight>
      <weight id='1028'> PDF=  292226 NNPDF30_nlo_nf_5_pdfas </weight>
      <weight id='1029'> PDF=  292227 NNPDF30_nlo_nf_5_pdfas </weight>
      <weight id='1030'> PDF=  292228 NNPDF30_nlo_nf_5_pdfas </weight>
      <weight id='1031'> PDF=  292229 NNPDF30_nlo_nf_5_pdfas </weight>
      <weight id='1032'> PDF=  292230 NNPDF30_nlo_nf_5_pdfas </weight>
      <weight id='1033'> PDF=  292231 NNPDF30_nlo_nf_5_pdfas </weight>
      <weight id='1034'> PDF=  292232 NNPDF30_nlo_nf_5_pdfas </weight>
      <weight id='1035'> PDF=  292233 NNPDF30_nlo_nf_5_pdfas </weight>
      <weight id='1036'> PDF=  292234 NNPDF30_nlo_nf_5_pdfas </weight>
      <weight id='1037'> PDF=  292235 NNPDF30_nlo_nf_5_pdfas </weight>
      <weight id='1038'> PDF=  292236 NNPDF30_nlo_nf_5_pdfas </weight>
      <weight id='1039'> PDF=  292237 NNPDF30_nlo_nf_5_pdfas </weight>
      <weight id='1040'> PDF=  292238 NNPDF30_nlo_nf_5_pdfas </weight>
      <weight id='1041'> PDF=  292239 NNPDF30_nlo_nf_5_pdfas </weight>
      <weight id='1042'> PDF=  292240 NNPDF30_nlo_nf_5_pdfas </weight>
      <weight id='1043'> PDF=  292241 NNPDF30_nlo_nf_5_pdfas </weight>
      <weight id='1044'> PDF=  292242 NNPDF30_nlo_nf_5_pdfas </weight>
      <weight id='1045'> PDF=  292243 NNPDF30_nlo_nf_5_pdfas </weight>
      <weight id='1046'> PDF=  292244 NNPDF30_nlo_nf_5_pdfas </weight>
      <weight id='1047'> PDF=  292245 NNPDF30_nlo_nf_5_pdfas </weight>
      <weight id='1048'> PDF=  292246 NNPDF30_nlo_nf_5_pdfas </weight>
      <weight id='1049'> PDF=  292247 NNPDF30_nlo_nf_5_pdfas </weight>
      <weight id='1050'> PDF=  292248 NNPDF30_nlo_nf_5_pdfas </weight>
      <weight id='1051'> PDF=  292249 NNPDF30_nlo_nf_5_pdfas </weight>
      <weight id='1052'> PDF=  292250 NNPDF30_nlo_nf_5_pdfas </weight>
      <weight id='1053'> PDF=  292251 NNPDF30_nlo_nf_5_pdfas </weight>
      <weight id='1054'> PDF=  292252 NNPDF30_nlo_nf_5_pdfas </weight>
      <weight id='1055'> PDF=  292253 NNPDF30_nlo_nf_5_pdfas </weight>
      <weight id='1056'> PDF=  292254 NNPDF30_nlo_nf_5_pdfas </weight>
      <weight id='1057'> PDF=  292255 NNPDF30_nlo_nf_5_pdfas </weight>
      <weight id='1058'> PDF=  292256 NNPDF30_nlo_nf_5_pdfas </weight>
      <weight id='1059'> PDF=  292257 NNPDF30_nlo_nf_5_pdfas </weight>
      <weight id='1060'> PDF=  292258 NNPDF30_nlo_nf_5_pdfas </weight>
      <weight id='1061'> PDF=  292259 NNPDF30_nlo_nf_5_pdfas </weight>
      <weight id='1062'> PDF=  292260 NNPDF30_nlo_nf_5_pdfas </weight>
      <weight id='1063'> PDF=  292261 NNPDF30_nlo_nf_5_pdfas </weight>
      <weight id='1064'> PDF=  292262 NNPDF30_nlo_nf_5_pdfas </weight>
      <weight id='1065'> PDF=  292263 NNPDF30_nlo_nf_5_pdfas </weight>
      <weight id='1066'> PDF=  292264 NNPDF30_nlo_nf_5_pdfas </weight>
      <weight id='1067'> PDF=  292265 NNPDF30_nlo_nf_5_pdfas </weight>
      <weight id='1068'> PDF=  292266 NNPDF30_nlo_nf_5_pdfas </weight>
      <weight id='1069'> PDF=  292267 NNPDF30_nlo_nf_5_pdfas </weight>
      <weight id='1070'> PDF=  292268 NNPDF30_nlo_nf_5_pdfas </weight>
      <weight id='1071'> PDF=  292269 NNPDF30_nlo_nf_5_pdfas </weight>
      <weight id='1072'> PDF=  292270 NNPDF30_nlo_nf_5_pdfas </weight>
      <weight id='1073'> PDF=  292271 NNPDF30_nlo_nf_5_pdfas </weight>
      <weight id='1074'> PDF=  292272 NNPDF30_nlo_nf_5_pdfas </weight>
      <weight id='1075'> PDF=  292273 NNPDF30_nlo_nf_5_pdfas </weight>
      <weight id='1076'> PDF=  292274 NNPDF30_nlo_nf_5_pdfas </weight>
      <weight id='1077'> PDF=  292275 NNPDF30_nlo_nf_5_pdfas </weight>
      <weight id='1078'> PDF=  292276 NNPDF30_nlo_nf_5_pdfas </weight>
      <weight id='1079'> PDF=  292277 NNPDF30_nlo_nf_5_pdfas </weight>
      <weight id='1080'> PDF=  292278 NNPDF30_nlo_nf_5_pdfas </weight>
      <weight id='1081'> PDF=  292279 NNPDF30_nlo_nf_5_pdfas </weight>
      <weight id='1082'> PDF=  292280 NNPDF30_nlo_nf_5_pdfas </weight>
      <weight id='1083'> PDF=  292281 NNPDF30_nlo_nf_5_pdfas </weight>
      <weight id='1084'> PDF=  292282 NNPDF30_nlo_nf_5_pdfas </weight>
      <weight id='1085'> PDF=  292283 NNPDF30_nlo_nf_5_pdfas </weight>
      <weight id='1086'> PDF=  292284 NNPDF30_nlo_nf_5_pdfas </weight>
      <weight id='1087'> PDF=  292285 NNPDF30_nlo_nf_5_pdfas </weight>
      <weight id='1088'> PDF=  292286 NNPDF30_nlo_nf_5_pdfas </weight>
      <weight id='1089'> PDF=  292287 NNPDF30_nlo_nf_5_pdfas </weight>
      <weight id='1090'> PDF=  292288 NNPDF30_nlo_nf_5_pdfas </weight>
      <weight id='1091'> PDF=  292289 NNPDF30_nlo_nf_5_pdfas </weight>
      <weight id='1092'> PDF=  292290 NNPDF30_nlo_nf_5_pdfas </weight>
      <weight id='1093'> PDF=  292291 NNPDF30_nlo_nf_5_pdfas </weight>
      <weight id='1094'> PDF=  292292 NNPDF30_nlo_nf_5_pdfas </weight>
      <weight id='1095'> PDF=  292293 NNPDF30_nlo_nf_5_pdfas </weight>
      <weight id='1096'> PDF=  292294 NNPDF30_nlo_nf_5_pdfas </weight>
      <weight id='1097'> PDF=  292295 NNPDF30_nlo_nf_5_pdfas </weight>
      <weight id='1098'> PDF=  292296 NNPDF30_nlo_nf_5_pdfas </weight>
      <weight id='1099'> PDF=  292297 NNPDF30_nlo_nf_5_pdfas </weight>
      <weight id='1100'> PDF=  292298 NNPDF30_nlo_nf_5_pdfas </weight>
      <weight id='1101'> PDF=  292299 NNPDF30_nlo_nf_5_pdfas </weight>
      <weight id='1102'> PDF=  292300 NNPDF30_nlo_nf_5_pdfas </weight>
      <weight id='1103'> PDF=  292301 NNPDF30_nlo_nf_5_pdfas </weight>
      <weight id='1104'> PDF=  292302 NNPDF30_nlo_nf_5_pdfas </weight>
    </weightgroup>
<weight id="1105" MUR="1.0" MUF="1.0" PDF="292200" >  </weight>
<weightgroup name="Central scale variation" combine="envelope">
<weight id="1106" MUR="2.0" MUF="1.0" PDF="292200" > MUR=2.0  </weight>
<weight id="1107" MUR="0.5" MUF="1.0" PDF="292200" > MUR=0.5  </weight>
<weight id="1108" MUR="1.0" MUF="2.0" PDF="292200" > MUF=2.0  </weight>
<weight id="1109" MUR="2.0" MUF="2.0" PDF="292200" > MUR=2.0 MUF=2.0  </weight>
<weight id="1110" MUR="0.5" MUF="2.0" PDF="292200" > MUR=0.5 MUF=2.0  </weight>
<weight id="1111" MUR="1.0" MUF="0.5" PDF="292200" > MUF=0.5  </weight>
<weight id="1112" MUR="2.0" MUF="0.5" PDF="292200" > MUR=2.0 MUF=0.5  </weight>
<weight id="1113" MUR="0.5" MUF="0.5" PDF="292200" > MUR=0.5 MUF=0.5  </weight>
</weightgroup> # scale
<weightgroup name="NNPDF31_nnlo_as_0118" combine="replicas"> # 303600: NNPDF3.1 NNLO global fit, alphas(MZ)=0.118. mem=0 ; average on replicas; mem=1-100 ; PDF replicas
<weight id="1114" MUR="1.0" MUF="1.0" PDF="303600" > PDF=303600 MemberID=0 </weight>
<weight id="1115" MUR="1.0" MUF="1.0" PDF="303601" > PDF=303600 MemberID=1 </weight>
<weight id="1116" MUR="1.0" MUF="1.0" PDF="303602" > PDF=303600 MemberID=2 </weight>
<weight id="1117" MUR="1.0" MUF="1.0" PDF="303603" > PDF=303600 MemberID=3 </weight>
<weight id="1118" MUR="1.0" MUF="1.0" PDF="303604" > PDF=303600 MemberID=4 </weight>
<weight id="1119" MUR="1.0" MUF="1.0" PDF="303605" > PDF=303600 MemberID=5 </weight>
<weight id="1120" MUR="1.0" MUF="1.0" PDF="303606" > PDF=303600 MemberID=6 </weight>
<weight id="1121" MUR="1.0" MUF="1.0" PDF="303607" > PDF=303600 MemberID=7 </weight>
<weight id="1122" MUR="1.0" MUF="1.0" PDF="303608" > PDF=303600 MemberID=8 </weight>
<weight id="1123" MUR="1.0" MUF="1.0" PDF="303609" > PDF=303600 MemberID=9 </weight>
<weight id="1124" MUR="1.0" MUF="1.0" PDF="303610" > PDF=303600 MemberID=10 </weight>
<weight id="1125" MUR="1.0" MUF="1.0" PDF="303611" > PDF=303600 MemberID=11 </weight>
<weight id="1126" MUR="1.0" MUF="1.0" PDF="303612" > PDF=303600 MemberID=12 </weight>
<weight id="1127" MUR="1.0" MUF="1.0" PDF="303613" > PDF=303600 MemberID=13 </weight>
<weight id="1128" MUR="1.0" MUF="1.0" PDF="303614" > PDF=303600 MemberID=14 </weight>
<weight id="1129" MUR="1.0" MUF="1.0" PDF="303615" > PDF=303600 MemberID=15 </weight>
<weight id="1130" MUR="1.0" MUF="1.0" PDF="303616" > PDF=303600 MemberID=16 </weight>
<weight id="1131" MUR="1.0" MUF="1.0" PDF="303617" > PDF=303600 MemberID=17 </weight>
<weight id="1132" MUR="1.0" MUF="1.0" PDF="303618" > PDF=303600 MemberID=18 </weight>
<weight id="1133" MUR="1.0" MUF="1.0" PDF="303619" > PDF=303600 MemberID=19 </weight>
<weight id="1134" MUR="1.0" MUF="1.0" PDF="303620" > PDF=303600 MemberID=20 </weight>
<weight id="1135" MUR="1.0" MUF="1.0" PDF="303621" > PDF=303600 MemberID=21 </weight>
<weight id="1136" MUR="1.0" MUF="1.0" PDF="303622" > PDF=303600 MemberID=22 </weight>
<weight id="1137" MUR="1.0" MUF="1.0" PDF="303623" > PDF=303600 MemberID=23 </weight>
<weight id="1138" MUR="1.0" MUF="1.0" PDF="303624" > PDF=303600 MemberID=24 </weight>
<weight id="1139" MUR="1.0" MUF="1.0" PDF="303625" > PDF=303600 MemberID=25 </weight>
<weight id="1140" MUR="1.0" MUF="1.0" PDF="303626" > PDF=303600 MemberID=26 </weight>
<weight id="1141" MUR="1.0" MUF="1.0" PDF="303627" > PDF=303600 MemberID=27 </weight>
<weight id="1142" MUR="1.0" MUF="1.0" PDF="303628" > PDF=303600 MemberID=28 </weight>
<weight id="1143" MUR="1.0" MUF="1.0" PDF="303629" > PDF=303600 MemberID=29 </weight>
<weight id="1144" MUR="1.0" MUF="1.0" PDF="303630" > PDF=303600 MemberID=30 </weight>
<weight id="1145" MUR="1.0" MUF="1.0" PDF="303631" > PDF=303600 MemberID=31 </weight>
<weight id="1146" MUR="1.0" MUF="1.0" PDF="303632" > PDF=303600 MemberID=32 </weight>
<weight id="1147" MUR="1.0" MUF="1.0" PDF="303633" > PDF=303600 MemberID=33 </weight>
<weight id="1148" MUR="1.0" MUF="1.0" PDF="303634" > PDF=303600 MemberID=34 </weight>
<weight id="1149" MUR="1.0" MUF="1.0" PDF="303635" > PDF=303600 MemberID=35 </weight>
<weight id="1150" MUR="1.0" MUF="1.0" PDF="303636" > PDF=303600 MemberID=36 </weight>
<weight id="1151" MUR="1.0" MUF="1.0" PDF="303637" > PDF=303600 MemberID=37 </weight>
<weight id="1152" MUR="1.0" MUF="1.0" PDF="303638" > PDF=303600 MemberID=38 </weight>
<weight id="1153" MUR="1.0" MUF="1.0" PDF="303639" > PDF=303600 MemberID=39 </weight>
<weight id="1154" MUR="1.0" MUF="1.0" PDF="303640" > PDF=303600 MemberID=40 </weight>
<weight id="1155" MUR="1.0" MUF="1.0" PDF="303641" > PDF=303600 MemberID=41 </weight>
<weight id="1156" MUR="1.0" MUF="1.0" PDF="303642" > PDF=303600 MemberID=42 </weight>
<weight id="1157" MUR="1.0" MUF="1.0" PDF="303643" > PDF=303600 MemberID=43 </weight>
<weight id="1158" MUR="1.0" MUF="1.0" PDF="303644" > PDF=303600 MemberID=44 </weight>
<weight id="1159" MUR="1.0" MUF="1.0" PDF="303645" > PDF=303600 MemberID=45 </weight>
<weight id="1160" MUR="1.0" MUF="1.0" PDF="303646" > PDF=303600 MemberID=46 </weight>
<weight id="1161" MUR="1.0" MUF="1.0" PDF="303647" > PDF=303600 MemberID=47 </weight>
<weight id="1162" MUR="1.0" MUF="1.0" PDF="303648" > PDF=303600 MemberID=48 </weight>
<weight id="1163" MUR="1.0" MUF="1.0" PDF="303649" > PDF=303600 MemberID=49 </weight>
<weight id="1164" MUR="1.0" MUF="1.0" PDF="303650" > PDF=303600 MemberID=50 </weight>
<weight id="1165" MUR="1.0" MUF="1.0" PDF="303651" > PDF=303600 MemberID=51 </weight>
<weight id="1166" MUR="1.0" MUF="1.0" PDF="303652" > PDF=303600 MemberID=52 </weight>
<weight id="1167" MUR="1.0" MUF="1.0" PDF="303653" > PDF=303600 MemberID=53 </weight>
<weight id="1168" MUR="1.0" MUF="1.0" PDF="303654" > PDF=303600 MemberID=54 </weight>
<weight id="1169" MUR="1.0" MUF="1.0" PDF="303655" > PDF=303600 MemberID=55 </weight>
<weight id="1170" MUR="1.0" MUF="1.0" PDF="303656" > PDF=303600 MemberID=56 </weight>
<weight id="1171" MUR="1.0" MUF="1.0" PDF="303657" > PDF=303600 MemberID=57 </weight>
<weight id="1172" MUR="1.0" MUF="1.0" PDF="303658" > PDF=303600 MemberID=58 </weight>
<weight id="1173" MUR="1.0" MUF="1.0" PDF="303659" > PDF=303600 MemberID=59 </weight>
<weight id="1174" MUR="1.0" MUF="1.0" PDF="303660" > PDF=303600 MemberID=60 </weight>
<weight id="1175" MUR="1.0" MUF="1.0" PDF="303661" > PDF=303600 MemberID=61 </weight>
<weight id="1176" MUR="1.0" MUF="1.0" PDF="303662" > PDF=303600 MemberID=62 </weight>
<weight id="1177" MUR="1.0" MUF="1.0" PDF="303663" > PDF=303600 MemberID=63 </weight>
<weight id="1178" MUR="1.0" MUF="1.0" PDF="303664" > PDF=303600 MemberID=64 </weight>
<weight id="1179" MUR="1.0" MUF="1.0" PDF="303665" > PDF=303600 MemberID=65 </weight>
<weight id="1180" MUR="1.0" MUF="1.0" PDF="303666" > PDF=303600 MemberID=66 </weight>
<weight id="1181" MUR="1.0" MUF="1.0" PDF="303667" > PDF=303600 MemberID=67 </weight>
<weight id="1182" MUR="1.0" MUF="1.0" PDF="303668" > PDF=303600 MemberID=68 </weight>
<weight id="1183" MUR="1.0" MUF="1.0" PDF="303669" > PDF=303600 MemberID=69 </weight>
<weight id="1184" MUR="1.0" MUF="1.0" PDF="303670" > PDF=303600 MemberID=70 </weight>
<weight id="1185" MUR="1.0" MUF="1.0" PDF="303671" > PDF=303600 MemberID=71 </weight>
<weight id="1186" MUR="1.0" MUF="1.0" PDF="303672" > PDF=303600 MemberID=72 </weight>
<weight id="1187" MUR="1.0" MUF="1.0" PDF="303673" > PDF=303600 MemberID=73 </weight>
<weight id="1188" MUR="1.0" MUF="1.0" PDF="303674" > PDF=303600 MemberID=74 </weight>
<weight id="1189" MUR="1.0" MUF="1.0" PDF="303675" > PDF=303600 MemberID=75 </weight>
<weight id="1190" MUR="1.0" MUF="1.0" PDF="303676" > PDF=303600 MemberID=76 </weight>
<weight id="1191" MUR="1.0" MUF="1.0" PDF="303677" > PDF=303600 MemberID=77 </weight>
<weight id="1192" MUR="1.0" MUF="1.0" PDF="303678" > PDF=303600 MemberID=78 </weight>
<weight id="1193" MUR="1.0" MUF="1.0" PDF="303679" > PDF=303600 MemberID=79 </weight>
<weight id="1194" MUR="1.0" MUF="1.0" PDF="303680" > PDF=303600 MemberID=80 </weight>
<weight id="1195" MUR="1.0" MUF="1.0" PDF="303681" > PDF=303600 MemberID=81 </weight>
<weight id="1196" MUR="1.0" MUF="1.0" PDF="303682" > PDF=303600 MemberID=82 </weight>
<weight id="1197" MUR="1.0" MUF="1.0" PDF="303683" > PDF=303600 MemberID=83 </weight>
<weight id="1198" MUR="1.0" MUF="1.0" PDF="303684" > PDF=303600 MemberID=84 </weight>
<weight id="1199" MUR="1.0" MUF="1.0" PDF="303685" > PDF=303600 MemberID=85 </weight>
<weight id="1200" MUR="1.0" MUF="1.0" PDF="303686" > PDF=303600 MemberID=86 </weight>
<weight id="1201" MUR="1.0" MUF="1.0" PDF="303687" > PDF=303600 MemberID=87 </weight>
<weight id="1202" MUR="1.0" MUF="1.0" PDF="303688" > PDF=303600 MemberID=88 </weight>
<weight id="1203" MUR="1.0" MUF="1.0" PDF="303689" > PDF=303600 MemberID=89 </weight>
<weight id="1204" MUR="1.0" MUF="1.0" PDF="303690" > PDF=303600 MemberID=90 </weight>
<weight id="1205" MUR="1.0" MUF="1.0" PDF="303691" > PDF=303600 MemberID=91 </weight>
<weight id="1206" MUR="1.0" MUF="1.0" PDF="303692" > PDF=303600 MemberID=92 </weight>
<weight id="1207" MUR="1.0" MUF="1.0" PDF="303693" > PDF=303600 MemberID=93 </weight>
<weight id="1208" MUR="1.0" MUF="1.0" PDF="303694" > PDF=303600 MemberID=94 </weight>
<weight id="1209" MUR="1.0" MUF="1.0" PDF="303695" > PDF=303600 MemberID=95 </weight>
<weight id="1210" MUR="1.0" MUF="1.0" PDF="303696" > PDF=303600 MemberID=96 </weight>
<weight id="1211" MUR="1.0" MUF="1.0" PDF="303697" > PDF=303600 MemberID=97 </weight>
<weight id="1212" MUR="1.0" MUF="1.0" PDF="303698" > PDF=303600 MemberID=98 </weight>
<weight id="1213" MUR="1.0" MUF="1.0" PDF="303699" > PDF=303600 MemberID=99 </weight>
<weight id="1214" MUR="1.0" MUF="1.0" PDF="303700" > PDF=303600 MemberID=100 </weight>
</weightgroup> # PDFSET -> PDF
<weight id="1215" MUR="1.0" MUF="1.0" PDF="292600" > PDF=292600 MemberID=0 </weight>
<weightgroup name="NNPDF31_nlo_hessian_pdfas" combine="symmhessian+as"> # 305800: Hessian conversion of NNPDF31_nlo_as_0118_1000, mem=0 ; central value Alphas(MZ)=0.118; mem=1-100 ; PDF eig.; mem=101 ; central value Alphas(MZ)=0.116; mem=102 ; central value Alphas(MZ)=0.120
<weight id="1216" MUR="1.0" MUF="1.0" PDF="305800" > PDF=305800 MemberID=0 </weight>
<weight id="1217" MUR="1.0" MUF="1.0" PDF="305801" > PDF=305800 MemberID=1 </weight>
<weight id="1218" MUR="1.0" MUF="1.0" PDF="305802" > PDF=305800 MemberID=2 </weight>
<weight id="1219" MUR="1.0" MUF="1.0" PDF="305803" > PDF=305800 MemberID=3 </weight>
<weight id="1220" MUR="1.0" MUF="1.0" PDF="305804" > PDF=305800 MemberID=4 </weight>
<weight id="1221" MUR="1.0" MUF="1.0" PDF="305805" > PDF=305800 MemberID=5 </weight>
<weight id="1222" MUR="1.0" MUF="1.0" PDF="305806" > PDF=305800 MemberID=6 </weight>
<weight id="1223" MUR="1.0" MUF="1.0" PDF="305807" > PDF=305800 MemberID=7 </weight>
<weight id="1224" MUR="1.0" MUF="1.0" PDF="305808" > PDF=305800 MemberID=8 </weight>
<weight id="1225" MUR="1.0" MUF="1.0" PDF="305809" > PDF=305800 MemberID=9 </weight>
<weight id="1226" MUR="1.0" MUF="1.0" PDF="305810" > PDF=305800 MemberID=10 </weight>
<weight id="1227" MUR="1.0" MUF="1.0" PDF="305811" > PDF=305800 MemberID=11 </weight>
<weight id="1228" MUR="1.0" MUF="1.0" PDF="305812" > PDF=305800 MemberID=12 </weight>
<weight id="1229" MUR="1.0" MUF="1.0" PDF="305813" > PDF=305800 MemberID=13 </weight>
<weight id="1230" MUR="1.0" MUF="1.0" PDF="305814" > PDF=305800 MemberID=14 </weight>
<weight id="1231" MUR="1.0" MUF="1.0" PDF="305815" > PDF=305800 MemberID=15 </weight>
<weight id="1232" MUR="1.0" MUF="1.0" PDF="305816" > PDF=305800 MemberID=16 </weight>
<weight id="1233" MUR="1.0" MUF="1.0" PDF="305817" > PDF=305800 MemberID=17 </weight>
<weight id="1234" MUR="1.0" MUF="1.0" PDF="305818" > PDF=305800 MemberID=18 </weight>
<weight id="1235" MUR="1.0" MUF="1.0" PDF="305819" > PDF=305800 MemberID=19 </weight>
<weight id="1236" MUR="1.0" MUF="1.0" PDF="305820" > PDF=305800 MemberID=20 </weight>
<weight id="1237" MUR="1.0" MUF="1.0" PDF="305821" > PDF=305800 MemberID=21 </weight>
<weight id="1238" MUR="1.0" MUF="1.0" PDF="305822" > PDF=305800 MemberID=22 </weight>
<weight id="1239" MUR="1.0" MUF="1.0" PDF="305823" > PDF=305800 MemberID=23 </weight>
<weight id="1240" MUR="1.0" MUF="1.0" PDF="305824" > PDF=305800 MemberID=24 </weight>
<weight id="1241" MUR="1.0" MUF="1.0" PDF="305825" > PDF=305800 MemberID=25 </weight>
<weight id="1242" MUR="1.0" MUF="1.0" PDF="305826" > PDF=305800 MemberID=26 </weight>
<weight id="1243" MUR="1.0" MUF="1.0" PDF="305827" > PDF=305800 MemberID=27 </weight>
<weight id="1244" MUR="1.0" MUF="1.0" PDF="305828" > PDF=305800 MemberID=28 </weight>
<weight id="1245" MUR="1.0" MUF="1.0" PDF="305829" > PDF=305800 MemberID=29 </weight>
<weight id="1246" MUR="1.0" MUF="1.0" PDF="305830" > PDF=305800 MemberID=30 </weight>
<weight id="1247" MUR="1.0" MUF="1.0" PDF="305831" > PDF=305800 MemberID=31 </weight>
<weight id="1248" MUR="1.0" MUF="1.0" PDF="305832" > PDF=305800 MemberID=32 </weight>
<weight id="1249" MUR="1.0" MUF="1.0" PDF="305833" > PDF=305800 MemberID=33 </weight>
<weight id="1250" MUR="1.0" MUF="1.0" PDF="305834" > PDF=305800 MemberID=34 </weight>
<weight id="1251" MUR="1.0" MUF="1.0" PDF="305835" > PDF=305800 MemberID=35 </weight>
<weight id="1252" MUR="1.0" MUF="1.0" PDF="305836" > PDF=305800 MemberID=36 </weight>
<weight id="1253" MUR="1.0" MUF="1.0" PDF="305837" > PDF=305800 MemberID=37 </weight>
<weight id="1254" MUR="1.0" MUF="1.0" PDF="305838" > PDF=305800 MemberID=38 </weight>
<weight id="1255" MUR="1.0" MUF="1.0" PDF="305839" > PDF=305800 MemberID=39 </weight>
<weight id="1256" MUR="1.0" MUF="1.0" PDF="305840" > PDF=305800 MemberID=40 </weight>
<weight id="1257" MUR="1.0" MUF="1.0" PDF="305841" > PDF=305800 MemberID=41 </weight>
<weight id="1258" MUR="1.0" MUF="1.0" PDF="305842" > PDF=305800 MemberID=42 </weight>
<weight id="1259" MUR="1.0" MUF="1.0" PDF="305843" > PDF=305800 MemberID=43 </weight>
<weight id="1260" MUR="1.0" MUF="1.0" PDF="305844" > PDF=305800 MemberID=44 </weight>
<weight id="1261" MUR="1.0" MUF="1.0" PDF="305845" > PDF=305800 MemberID=45 </weight>
<weight id="1262" MUR="1.0" MUF="1.0" PDF="305846" > PDF=305800 MemberID=46 </weight>
<weight id="1263" MUR="1.0" MUF="1.0" PDF="305847" > PDF=305800 MemberID=47 </weight>
<weight id="1264" MUR="1.0" MUF="1.0" PDF="305848" > PDF=305800 MemberID=48 </weight>
<weight id="1265" MUR="1.0" MUF="1.0" PDF="305849" > PDF=305800 MemberID=49 </weight>
<weight id="1266" MUR="1.0" MUF="1.0" PDF="305850" > PDF=305800 MemberID=50 </weight>
<weight id="1267" MUR="1.0" MUF="1.0" PDF="305851" > PDF=305800 MemberID=51 </weight>
<weight id="1268" MUR="1.0" MUF="1.0" PDF="305852" > PDF=305800 MemberID=52 </weight>
<weight id="1269" MUR="1.0" MUF="1.0" PDF="305853" > PDF=305800 MemberID=53 </weight>
<weight id="1270" MUR="1.0" MUF="1.0" PDF="305854" > PDF=305800 MemberID=54 </weight>
<weight id="1271" MUR="1.0" MUF="1.0" PDF="305855" > PDF=305800 MemberID=55 </weight>
<weight id="1272" MUR="1.0" MUF="1.0" PDF="305856" > PDF=305800 MemberID=56 </weight>
<weight id="1273" MUR="1.0" MUF="1.0" PDF="305857" > PDF=305800 MemberID=57 </weight>
<weight id="1274" MUR="1.0" MUF="1.0" PDF="305858" > PDF=305800 MemberID=58 </weight>
<weight id="1275" MUR="1.0" MUF="1.0" PDF="305859" > PDF=305800 MemberID=59 </weight>
<weight id="1276" MUR="1.0" MUF="1.0" PDF="305860" > PDF=305800 MemberID=60 </weight>
<weight id="1277" MUR="1.0" MUF="1.0" PDF="305861" > PDF=305800 MemberID=61 </weight>
<weight id="1278" MUR="1.0" MUF="1.0" PDF="305862" > PDF=305800 MemberID=62 </weight>
<weight id="1279" MUR="1.0" MUF="1.0" PDF="305863" > PDF=305800 MemberID=63 </weight>
<weight id="1280" MUR="1.0" MUF="1.0" PDF="305864" > PDF=305800 MemberID=64 </weight>
<weight id="1281" MUR="1.0" MUF="1.0" PDF="305865" > PDF=305800 MemberID=65 </weight>
<weight id="1282" MUR="1.0" MUF="1.0" PDF="305866" > PDF=305800 MemberID=66 </weight>
<weight id="1283" MUR="1.0" MUF="1.0" PDF="305867" > PDF=305800 MemberID=67 </weight>
<weight id="1284" MUR="1.0" MUF="1.0" PDF="305868" > PDF=305800 MemberID=68 </weight>
<weight id="1285" MUR="1.0" MUF="1.0" PDF="305869" > PDF=305800 MemberID=69 </weight>
<weight id="1286" MUR="1.0" MUF="1.0" PDF="305870" > PDF=305800 MemberID=70 </weight>
<weight id="1287" MUR="1.0" MUF="1.0" PDF="305871" > PDF=305800 MemberID=71 </weight>
<weight id="1288" MUR="1.0" MUF="1.0" PDF="305872" > PDF=305800 MemberID=72 </weight>
<weight id="1289" MUR="1.0" MUF="1.0" PDF="305873" > PDF=305800 MemberID=73 </weight>
<weight id="1290" MUR="1.0" MUF="1.0" PDF="305874" > PDF=305800 MemberID=74 </weight>
<weight id="1291" MUR="1.0" MUF="1.0" PDF="305875" > PDF=305800 MemberID=75 </weight>
<weight id="1292" MUR="1.0" MUF="1.0" PDF="305876" > PDF=305800 MemberID=76 </weight>
<weight id="1293" MUR="1.0" MUF="1.0" PDF="305877" > PDF=305800 MemberID=77 </weight>
<weight id="1294" MUR="1.0" MUF="1.0" PDF="305878" > PDF=305800 MemberID=78 </weight>
<weight id="1295" MUR="1.0" MUF="1.0" PDF="305879" > PDF=305800 MemberID=79 </weight>
<weight id="1296" MUR="1.0" MUF="1.0" PDF="305880" > PDF=305800 MemberID=80 </weight>
<weight id="1297" MUR="1.0" MUF="1.0" PDF="305881" > PDF=305800 MemberID=81 </weight>
<weight id="1298" MUR="1.0" MUF="1.0" PDF="305882" > PDF=305800 MemberID=82 </weight>
<weight id="1299" MUR="1.0" MUF="1.0" PDF="305883" > PDF=305800 MemberID=83 </weight>
<weight id="1300" MUR="1.0" MUF="1.0" PDF="305884" > PDF=305800 MemberID=84 </weight>
<weight id="1301" MUR="1.0" MUF="1.0" PDF="305885" > PDF=305800 MemberID=85 </weight>
<weight id="1302" MUR="1.0" MUF="1.0" PDF="305886" > PDF=305800 MemberID=86 </weight>
<weight id="1303" MUR="1.0" MUF="1.0" PDF="305887" > PDF=305800 MemberID=87 </weight>
<weight id="1304" MUR="1.0" MUF="1.0" PDF="305888" > PDF=305800 MemberID=88 </weight>
<weight id="1305" MUR="1.0" MUF="1.0" PDF="305889" > PDF=305800 MemberID=89 </weight>
<weight id="1306" MUR="1.0" MUF="1.0" PDF="305890" > PDF=305800 MemberID=90 </weight>
<weight id="1307" MUR="1.0" MUF="1.0" PDF="305891" > PDF=305800 MemberID=91 </weight>
<weight id="1308" MUR="1.0" MUF="1.0" PDF="305892" > PDF=305800 MemberID=92 </weight>
<weight id="1309" MUR="1.0" MUF="1.0" PDF="305893" > PDF=305800 MemberID=93 </weight>
<weight id="1310" MUR="1.0" MUF="1.0" PDF="305894" > PDF=305800 MemberID=94 </weight>
<weight id="1311" MUR="1.0" MUF="1.0" PDF="305895" > PDF=305800 MemberID=95 </weight>
<weight id="1312" MUR="1.0" MUF="1.0" PDF="305896" > PDF=305800 MemberID=96 </weight>
<weight id="1313" MUR="1.0" MUF="1.0" PDF="305897" > PDF=305800 MemberID=97 </weight>
<weight id="1314" MUR="1.0" MUF="1.0" PDF="305898" > PDF=305800 MemberID=98 </weight>
<weight id="1315" MUR="1.0" MUF="1.0" PDF="305899" > PDF=305800 MemberID=99 </weight>
<weight id="1316" MUR="1.0" MUF="1.0" PDF="305900" > PDF=305800 MemberID=100 </weight>
<weight id="1317" MUR="1.0" MUF="1.0" PDF="305901" > PDF=305800 MemberID=101 </weight>
<weight id="1318" MUR="1.0" MUF="1.0" PDF="305902" > PDF=305800 MemberID=102 </weight>
</weightgroup> # PDFSET -> PDF
<weight id="1319" MUR="1.0" MUF="1.0" PDF="315000" > PDF=315000 MemberID=0 </weight>
<weightgroup name="CT14nlo" combine="hessian"> # 13100: CT14nlo, 2-loop PDF evolution with HOPPET and HOPPET alphas_s running solution. This set has 57 member PDFs. mem=0 --.gt. central value; mem=1-56 --.gt. eigenvector sets 90%
<weight id="1320" MUR="1.0" MUF="1.0" PDF="13100" > PDF=13100 MemberID=0 </weight>
<weight id="1321" MUR="1.0" MUF="1.0" PDF="13101" > PDF=13100 MemberID=1 </weight>
<weight id="1322" MUR="1.0" MUF="1.0" PDF="13102" > PDF=13100 MemberID=2 </weight>
<weight id="1323" MUR="1.0" MUF="1.0" PDF="13103" > PDF=13100 MemberID=3 </weight>
<weight id="1324" MUR="1.0" MUF="1.0" PDF="13104" > PDF=13100 MemberID=4 </weight>
<weight id="1325" MUR="1.0" MUF="1.0" PDF="13105" > PDF=13100 MemberID=5 </weight>
<weight id="1326" MUR="1.0" MUF="1.0" PDF="13106" > PDF=13100 MemberID=6 </weight>
<weight id="1327" MUR="1.0" MUF="1.0" PDF="13107" > PDF=13100 MemberID=7 </weight>
<weight id="1328" MUR="1.0" MUF="1.0" PDF="13108" > PDF=13100 MemberID=8 </weight>
<weight id="1329" MUR="1.0" MUF="1.0" PDF="13109" > PDF=13100 MemberID=9 </weight>
<weight id="1330" MUR="1.0" MUF="1.0" PDF="13110" > PDF=13100 MemberID=10 </weight>
<weight id="1331" MUR="1.0" MUF="1.0" PDF="13111" > PDF=13100 MemberID=11 </weight>
<weight id="1332" MUR="1.0" MUF="1.0" PDF="13112" > PDF=13100 MemberID=12 </weight>
<weight id="1333" MUR="1.0" MUF="1.0" PDF="13113" > PDF=13100 MemberID=13 </weight>
<weight id="1334" MUR="1.0" MUF="1.0" PDF="13114" > PDF=13100 MemberID=14 </weight>
<weight id="1335" MUR="1.0" MUF="1.0" PDF="13115" > PDF=13100 MemberID=15 </weight>
<weight id="1336" MUR="1.0" MUF="1.0" PDF="13116" > PDF=13100 MemberID=16 </weight>
<weight id="1337" MUR="1.0" MUF="1.0" PDF="13117" > PDF=13100 MemberID=17 </weight>
<weight id="1338" MUR="1.0" MUF="1.0" PDF="13118" > PDF=13100 MemberID=18 </weight>
<weight id="1339" MUR="1.0" MUF="1.0" PDF="13119" > PDF=13100 MemberID=19 </weight>
<weight id="1340" MUR="1.0" MUF="1.0" PDF="13120" > PDF=13100 MemberID=20 </weight>
<weight id="1341" MUR="1.0" MUF="1.0" PDF="13121" > PDF=13100 MemberID=21 </weight>
<weight id="1342" MUR="1.0" MUF="1.0" PDF="13122" > PDF=13100 MemberID=22 </weight>
<weight id="1343" MUR="1.0" MUF="1.0" PDF="13123" > PDF=13100 MemberID=23 </weight>
<weight id="1344" MUR="1.0" MUF="1.0" PDF="13124" > PDF=13100 MemberID=24 </weight>
<weight id="1345" MUR="1.0" MUF="1.0" PDF="13125" > PDF=13100 MemberID=25 </weight>
<weight id="1346" MUR="1.0" MUF="1.0" PDF="13126" > PDF=13100 MemberID=26 </weight>
<weight id="1347" MUR="1.0" MUF="1.0" PDF="13127" > PDF=13100 MemberID=27 </weight>
<weight id="1348" MUR="1.0" MUF="1.0" PDF="13128" > PDF=13100 MemberID=28 </weight>
<weight id="1349" MUR="1.0" MUF="1.0" PDF="13129" > PDF=13100 MemberID=29 </weight>
<weight id="1350" MUR="1.0" MUF="1.0" PDF="13130" > PDF=13100 MemberID=30 </weight>
<weight id="1351" MUR="1.0" MUF="1.0" PDF="13131" > PDF=13100 MemberID=31 </weight>
<weight id="1352" MUR="1.0" MUF="1.0" PDF="13132" > PDF=13100 MemberID=32 </weight>
<weight id="1353" MUR="1.0" MUF="1.0" PDF="13133" > PDF=13100 MemberID=33 </weight>
<weight id="1354" MUR="1.0" MUF="1.0" PDF="13134" > PDF=13100 MemberID=34 </weight>
<weight id="1355" MUR="1.0" MUF="1.0" PDF="13135" > PDF=13100 MemberID=35 </weight>
<weight id="1356" MUR="1.0" MUF="1.0" PDF="13136" > PDF=13100 MemberID=36 </weight>
<weight id="1357" MUR="1.0" MUF="1.0" PDF="13137" > PDF=13100 MemberID=37 </weight>
<weight id="1358" MUR="1.0" MUF="1.0" PDF="13138" > PDF=13100 MemberID=38 </weight>
<weight id="1359" MUR="1.0" MUF="1.0" PDF="13139" > PDF=13100 MemberID=39 </weight>
<weight id="1360" MUR="1.0" MUF="1.0" PDF="13140" > PDF=13100 MemberID=40 </weight>
<weight id="1361" MUR="1.0" MUF="1.0" PDF="13141" > PDF=13100 MemberID=41 </weight>
<weight id="1362" MUR="1.0" MUF="1.0" PDF="13142" > PDF=13100 MemberID=42 </weight>
<weight id="1363" MUR="1.0" MUF="1.0" PDF="13143" > PDF=13100 MemberID=43 </weight>
<weight id="1364" MUR="1.0" MUF="1.0" PDF="13144" > PDF=13100 MemberID=44 </weight>
<weight id="1365" MUR="1.0" MUF="1.0" PDF="13145" > PDF=13100 MemberID=45 </weight>
<weight id="1366" MUR="1.0" MUF="1.0" PDF="13146" > PDF=13100 MemberID=46 </weight>
<weight id="1367" MUR="1.0" MUF="1.0" PDF="13147" > PDF=13100 MemberID=47 </weight>
<weight id="1368" MUR="1.0" MUF="1.0" PDF="13148" > PDF=13100 MemberID=48 </weight>
<weight id="1369" MUR="1.0" MUF="1.0" PDF="13149" > PDF=13100 MemberID=49 </weight>
<weight id="1370" MUR="1.0" MUF="1.0" PDF="13150" > PDF=13100 MemberID=50 </weight>
<weight id="1371" MUR="1.0" MUF="1.0" PDF="13151" > PDF=13100 MemberID=51 </weight>
<weight id="1372" MUR="1.0" MUF="1.0" PDF="13152" > PDF=13100 MemberID=52 </weight>
<weight id="1373" MUR="1.0" MUF="1.0" PDF="13153" > PDF=13100 MemberID=53 </weight>
<weight id="1374" MUR="1.0" MUF="1.0" PDF="13154" > PDF=13100 MemberID=54 </weight>
<weight id="1375" MUR="1.0" MUF="1.0" PDF="13155" > PDF=13100 MemberID=55 </weight>
<weight id="1376" MUR="1.0" MUF="1.0" PDF="13156" > PDF=13100 MemberID=56 </weight>
</weightgroup> # PDFSET -> PDF
<weight id="1377" MUR="1.0" MUF="1.0" PDF="13163" > PDF=13163 MemberID=0 </weight>
<weightgroup name="CT14nlo_as_0120" combine="unknown"> # 13167: CT14nlo, 2-loop PDF evolution with HOPPET and HOPPET alphas_s running solution. This set has 1 member PDFs. mem=0 --.gt. as=0.120
<weight id="1378" MUR="1.0" MUF="1.0" PDF="13167" > PDF=13167 MemberID=0 </weight>
</weightgroup> # PDFSET -> PDF
<weight id="1379" MUR="1.0" MUF="1.0" PDF="13000" > PDF=13000 MemberID=0 </weight>
<weight id="1380" MUR="1.0" MUF="1.0" PDF="13065" > PDF=13065 MemberID=0 </weight>
<weightgroup name="CT14nnlo_as_0120" combine="unknown"> # 13069: CT14nnlo, 3-loop PDF evolution with HOPPET and HOPPET alphas_s running solution. This set has 1 member PDFs. mem=0 --.gt. as=0.120
<weight id="1381" MUR="1.0" MUF="1.0" PDF="13069" > PDF=13069 MemberID=0 </weight>
</weightgroup> # PDFSET -> PDF
<weight id="1382" MUR="1.0" MUF="1.0" PDF="13200" > PDF=13200 MemberID=0 </weight>
<weight id="1383" MUR="1.0" MUF="1.0" PDF="25200" > PDF=25200 MemberID=0 </weight>
<weight id="1384" MUR="1.0" MUF="1.0" PDF="25300" > PDF=25300 MemberID=0 </weight>
<weightgroup name="MMHT2014lo68cl" combine="hessian"> # 25000: MMHT 2014 LO (68% C.L.). mem=0 ; central value; mem=1-50 ; 25 eigenvector sets (+/- directions). See Section 6 of arXiv:0901.0002 for error calculation.Web address: www.hep.ucl.ac.uk/mmht
<weight id="1385" MUR="1.0" MUF="1.0" PDF="25000" > PDF=25000 MemberID=0 </weight>
<weight id="1386" MUR="1.0" MUF="1.0" PDF="25001" > PDF=25000 MemberID=1 </weight>
<weight id="1387" MUR="1.0" MUF="1.0" PDF="25002" > PDF=25000 MemberID=2 </weight>
<weight id="1388" MUR="1.0" MUF="1.0" PDF="25003" > PDF=25000 MemberID=3 </weight>
<weight id="1389" MUR="1.0" MUF="1.0" PDF="25004" > PDF=25000 MemberID=4 </weight>
<weight id="1390" MUR="1.0" MUF="1.0" PDF="25005" > PDF=25000 MemberID=5 </weight>
<weight id="1391" MUR="1.0" MUF="1.0" PDF="25006" > PDF=25000 MemberID=6 </weight>
<weight id="1392" MUR="1.0" MUF="1.0" PDF="25007" > PDF=25000 MemberID=7 </weight>
<weight id="1393" MUR="1.0" MUF="1.0" PDF="25008" > PDF=25000 MemberID=8 </weight>
<weight id="1394" MUR="1.0" MUF="1.0" PDF="25009" > PDF=25000 MemberID=9 </weight>
<weight id="1395" MUR="1.0" MUF="1.0" PDF="25010" > PDF=25000 MemberID=10 </weight>
<weight id="1396" MUR="1.0" MUF="1.0" PDF="25011" > PDF=25000 MemberID=11 </weight>
<weight id="1397" MUR="1.0" MUF="1.0" PDF="25012" > PDF=25000 MemberID=12 </weight>
<weight id="1398" MUR="1.0" MUF="1.0" PDF="25013" > PDF=25000 MemberID=13 </weight>
<weight id="1399" MUR="1.0" MUF="1.0" PDF="25014" > PDF=25000 MemberID=14 </weight>
<weight id="1400" MUR="1.0" MUF="1.0" PDF="25015" > PDF=25000 MemberID=15 </weight>
<weight id="1401" MUR="1.0" MUF="1.0" PDF="25016" > PDF=25000 MemberID=16 </weight>
<weight id="1402" MUR="1.0" MUF="1.0" PDF="25017" > PDF=25000 MemberID=17 </weight>
<weight id="1403" MUR="1.0" MUF="1.0" PDF="25018" > PDF=25000 MemberID=18 </weight>
<weight id="1404" MUR="1.0" MUF="1.0" PDF="25019" > PDF=25000 MemberID=19 </weight>
<weight id="1405" MUR="1.0" MUF="1.0" PDF="25020" > PDF=25000 MemberID=20 </weight>
<weight id="1406" MUR="1.0" MUF="1.0" PDF="25021" > PDF=25000 MemberID=21 </weight>
<weight id="1407" MUR="1.0" MUF="1.0" PDF="25022" > PDF=25000 MemberID=22 </weight>
<weight id="1408" MUR="1.0" MUF="1.0" PDF="25023" > PDF=25000 MemberID=23 </weight>
<weight id="1409" MUR="1.0" MUF="1.0" PDF="25024" > PDF=25000 MemberID=24 </weight>
<weight id="1410" MUR="1.0" MUF="1.0" PDF="25025" > PDF=25000 MemberID=25 </weight>
<weight id="1411" MUR="1.0" MUF="1.0" PDF="25026" > PDF=25000 MemberID=26 </weight>
<weight id="1412" MUR="1.0" MUF="1.0" PDF="25027" > PDF=25000 MemberID=27 </weight>
<weight id="1413" MUR="1.0" MUF="1.0" PDF="25028" > PDF=25000 MemberID=28 </weight>
<weight id="1414" MUR="1.0" MUF="1.0" PDF="25029" > PDF=25000 MemberID=29 </weight>
<weight id="1415" MUR="1.0" MUF="1.0" PDF="25030" > PDF=25000 MemberID=30 </weight>
<weight id="1416" MUR="1.0" MUF="1.0" PDF="25031" > PDF=25000 MemberID=31 </weight>
<weight id="1417" MUR="1.0" MUF="1.0" PDF="25032" > PDF=25000 MemberID=32 </weight>
<weight id="1418" MUR="1.0" MUF="1.0" PDF="25033" > PDF=25000 MemberID=33 </weight>
<weight id="1419" MUR="1.0" MUF="1.0" PDF="25034" > PDF=25000 MemberID=34 </weight>
<weight id="1420" MUR="1.0" MUF="1.0" PDF="25035" > PDF=25000 MemberID=35 </weight>
<weight id="1421" MUR="1.0" MUF="1.0" PDF="25036" > PDF=25000 MemberID=36 </weight>
<weight id="1422" MUR="1.0" MUF="1.0" PDF="25037" > PDF=25000 MemberID=37 </weight>
<weight id="1423" MUR="1.0" MUF="1.0" PDF="25038" > PDF=25000 MemberID=38 </weight>
<weight id="1424" MUR="1.0" MUF="1.0" PDF="25039" > PDF=25000 MemberID=39 </weight>
<weight id="1425" MUR="1.0" MUF="1.0" PDF="25040" > PDF=25000 MemberID=40 </weight>
<weight id="1426" MUR="1.0" MUF="1.0" PDF="25041" > PDF=25000 MemberID=41 </weight>
<weight id="1427" MUR="1.0" MUF="1.0" PDF="25042" > PDF=25000 MemberID=42 </weight>
<weight id="1428" MUR="1.0" MUF="1.0" PDF="25043" > PDF=25000 MemberID=43 </weight>
<weight id="1429" MUR="1.0" MUF="1.0" PDF="25044" > PDF=25000 MemberID=44 </weight>
<weight id="1430" MUR="1.0" MUF="1.0" PDF="25045" > PDF=25000 MemberID=45 </weight>
<weight id="1431" MUR="1.0" MUF="1.0" PDF="25046" > PDF=25000 MemberID=46 </weight>
<weight id="1432" MUR="1.0" MUF="1.0" PDF="25047" > PDF=25000 MemberID=47 </weight>
<weight id="1433" MUR="1.0" MUF="1.0" PDF="25048" > PDF=25000 MemberID=48 </weight>
<weight id="1434" MUR="1.0" MUF="1.0" PDF="25049" > PDF=25000 MemberID=49 </weight>
<weight id="1435" MUR="1.0" MUF="1.0" PDF="25050" > PDF=25000 MemberID=50 </weight>
</weightgroup> # PDFSET -> PDFSET
<weightgroup name="ABMP15_3_nnlo" combine="symmhessian"> # 42400: NNLO 3-flavour PDFs for the ABMP15 set
<weight id="1436" MUR="1.0" MUF="1.0" PDF="42400" > PDF=42400 MemberID=0 </weight>
<weight id="1437" MUR="1.0" MUF="1.0" PDF="42401" > PDF=42400 MemberID=1 </weight>
<weight id="1438" MUR="1.0" MUF="1.0" PDF="42402" > PDF=42400 MemberID=2 </weight>
<weight id="1439" MUR="1.0" MUF="1.0" PDF="42403" > PDF=42400 MemberID=3 </weight>
<weight id="1440" MUR="1.0" MUF="1.0" PDF="42404" > PDF=42400 MemberID=4 </weight>
<weight id="1441" MUR="1.0" MUF="1.0" PDF="42405" > PDF=42400 MemberID=5 </weight>
<weight id="1442" MUR="1.0" MUF="1.0" PDF="42406" > PDF=42400 MemberID=6 </weight>
<weight id="1443" MUR="1.0" MUF="1.0" PDF="42407" > PDF=42400 MemberID=7 </weight>
<weight id="1444" MUR="1.0" MUF="1.0" PDF="42408" > PDF=42400 MemberID=8 </weight>
<weight id="1445" MUR="1.0" MUF="1.0" PDF="42409" > PDF=42400 MemberID=9 </weight>
<weight id="1446" MUR="1.0" MUF="1.0" PDF="42410" > PDF=42400 MemberID=10 </weight>
<weight id="1447" MUR="1.0" MUF="1.0" PDF="42411" > PDF=42400 MemberID=11 </weight>
<weight id="1448" MUR="1.0" MUF="1.0" PDF="42412" > PDF=42400 MemberID=12 </weight>
<weight id="1449" MUR="1.0" MUF="1.0" PDF="42413" > PDF=42400 MemberID=13 </weight>
<weight id="1450" MUR="1.0" MUF="1.0" PDF="42414" > PDF=42400 MemberID=14 </weight>
<weight id="1451" MUR="1.0" MUF="1.0" PDF="42415" > PDF=42400 MemberID=15 </weight>
<weight id="1452" MUR="1.0" MUF="1.0" PDF="42416" > PDF=42400 MemberID=16 </weight>
<weight id="1453" MUR="1.0" MUF="1.0" PDF="42417" > PDF=42400 MemberID=17 </weight>
<weight id="1454" MUR="1.0" MUF="1.0" PDF="42418" > PDF=42400 MemberID=18 </weight>
<weight id="1455" MUR="1.0" MUF="1.0" PDF="42419" > PDF=42400 MemberID=19 </weight>
<weight id="1456" MUR="1.0" MUF="1.0" PDF="42420" > PDF=42400 MemberID=20 </weight>
<weight id="1457" MUR="1.0" MUF="1.0" PDF="42421" > PDF=42400 MemberID=21 </weight>
<weight id="1458" MUR="1.0" MUF="1.0" PDF="42422" > PDF=42400 MemberID=22 </weight>
<weight id="1459" MUR="1.0" MUF="1.0" PDF="42423" > PDF=42400 MemberID=23 </weight>
<weight id="1460" MUR="1.0" MUF="1.0" PDF="42424" > PDF=42400 MemberID=24 </weight>
<weight id="1461" MUR="1.0" MUF="1.0" PDF="42425" > PDF=42400 MemberID=25 </weight>
<weight id="1462" MUR="1.0" MUF="1.0" PDF="42426" > PDF=42400 MemberID=26 </weight>
<weight id="1463" MUR="1.0" MUF="1.0" PDF="42427" > PDF=42400 MemberID=27 </weight>
<weight id="1464" MUR="1.0" MUF="1.0" PDF="42428" > PDF=42400 MemberID=28 </weight>
</weightgroup> # PDFSET -> PDF
<weight id="1465" MUR="1.0" MUF="1.0" PDF="42780" > PDF=42780 MemberID=0 </weight>
<weightgroup name="PDF4LHC15_nlo_100_pdfas" combine="symmhessian+as"> # 90200: PDF4LHC15_nlo_100_pdfas. mem=0 ; alphas(MZ)=0.118 central value; mem=1-100 ; PDF symmetric eigenvectors; mem=101 ; alphas(MZ)=0.1165 central value; mem=102 ; alphas(MZ)=0.1195
<weight id="1466" MUR="1.0" MUF="1.0" PDF="90200" > PDF=90200 MemberID=0 </weight>
<weight id="1467" MUR="1.0" MUF="1.0" PDF="90201" > PDF=90200 MemberID=1 </weight>
<weight id="1468" MUR="1.0" MUF="1.0" PDF="90202" > PDF=90200 MemberID=2 </weight>
<weight id="1469" MUR="1.0" MUF="1.0" PDF="90203" > PDF=90200 MemberID=3 </weight>
<weight id="1470" MUR="1.0" MUF="1.0" PDF="90204" > PDF=90200 MemberID=4 </weight>
<weight id="1471" MUR="1.0" MUF="1.0" PDF="90205" > PDF=90200 MemberID=5 </weight>
<weight id="1472" MUR="1.0" MUF="1.0" PDF="90206" > PDF=90200 MemberID=6 </weight>
<weight id="1473" MUR="1.0" MUF="1.0" PDF="90207" > PDF=90200 MemberID=7 </weight>
<weight id="1474" MUR="1.0" MUF="1.0" PDF="90208" > PDF=90200 MemberID=8 </weight>
<weight id="1475" MUR="1.0" MUF="1.0" PDF="90209" > PDF=90200 MemberID=9 </weight>
<weight id="1476" MUR="1.0" MUF="1.0" PDF="90210" > PDF=90200 MemberID=10 </weight>
<weight id="1477" MUR="1.0" MUF="1.0" PDF="90211" > PDF=90200 MemberID=11 </weight>
<weight id="1478" MUR="1.0" MUF="1.0" PDF="90212" > PDF=90200 MemberID=12 </weight>
<weight id="1479" MUR="1.0" MUF="1.0" PDF="90213" > PDF=90200 MemberID=13 </weight>
<weight id="1480" MUR="1.0" MUF="1.0" PDF="90214" > PDF=90200 MemberID=14 </weight>
<weight id="1481" MUR="1.0" MUF="1.0" PDF="90215" > PDF=90200 MemberID=15 </weight>
<weight id="1482" MUR="1.0" MUF="1.0" PDF="90216" > PDF=90200 MemberID=16 </weight>
<weight id="1483" MUR="1.0" MUF="1.0" PDF="90217" > PDF=90200 MemberID=17 </weight>
<weight id="1484" MUR="1.0" MUF="1.0" PDF="90218" > PDF=90200 MemberID=18 </weight>
<weight id="1485" MUR="1.0" MUF="1.0" PDF="90219" > PDF=90200 MemberID=19 </weight>
<weight id="1486" MUR="1.0" MUF="1.0" PDF="90220" > PDF=90200 MemberID=20 </weight>
<weight id="1487" MUR="1.0" MUF="1.0" PDF="90221" > PDF=90200 MemberID=21 </weight>
<weight id="1488" MUR="1.0" MUF="1.0" PDF="90222" > PDF=90200 MemberID=22 </weight>
<weight id="1489" MUR="1.0" MUF="1.0" PDF="90223" > PDF=90200 MemberID=23 </weight>
<weight id="1490" MUR="1.0" MUF="1.0" PDF="90224" > PDF=90200 MemberID=24 </weight>
<weight id="1491" MUR="1.0" MUF="1.0" PDF="90225" > PDF=90200 MemberID=25 </weight>
<weight id="1492" MUR="1.0" MUF="1.0" PDF="90226" > PDF=90200 MemberID=26 </weight>
<weight id="1493" MUR="1.0" MUF="1.0" PDF="90227" > PDF=90200 MemberID=27 </weight>
<weight id="1494" MUR="1.0" MUF="1.0" PDF="90228" > PDF=90200 MemberID=28 </weight>
<weight id="1495" MUR="1.0" MUF="1.0" PDF="90229" > PDF=90200 MemberID=29 </weight>
<weight id="1496" MUR="1.0" MUF="1.0" PDF="90230" > PDF=90200 MemberID=30 </weight>
<weight id="1497" MUR="1.0" MUF="1.0" PDF="90231" > PDF=90200 MemberID=31 </weight>
<weight id="1498" MUR="1.0" MUF="1.0" PDF="90232" > PDF=90200 MemberID=32 </weight>
<weight id="1499" MUR="1.0" MUF="1.0" PDF="90233" > PDF=90200 MemberID=33 </weight>
<weight id="1500" MUR="1.0" MUF="1.0" PDF="90234" > PDF=90200 MemberID=34 </weight>
<weight id="1501" MUR="1.0" MUF="1.0" PDF="90235" > PDF=90200 MemberID=35 </weight>
<weight id="1502" MUR="1.0" MUF="1.0" PDF="90236" > PDF=90200 MemberID=36 </weight>
<weight id="1503" MUR="1.0" MUF="1.0" PDF="90237" > PDF=90200 MemberID=37 </weight>
<weight id="1504" MUR="1.0" MUF="1.0" PDF="90238" > PDF=90200 MemberID=38 </weight>
<weight id="1505" MUR="1.0" MUF="1.0" PDF="90239" > PDF=90200 MemberID=39 </weight>
<weight id="1506" MUR="1.0" MUF="1.0" PDF="90240" > PDF=90200 MemberID=40 </weight>
<weight id="1507" MUR="1.0" MUF="1.0" PDF="90241" > PDF=90200 MemberID=41 </weight>
<weight id="1508" MUR="1.0" MUF="1.0" PDF="90242" > PDF=90200 MemberID=42 </weight>
<weight id="1509" MUR="1.0" MUF="1.0" PDF="90243" > PDF=90200 MemberID=43 </weight>
<weight id="1510" MUR="1.0" MUF="1.0" PDF="90244" > PDF=90200 MemberID=44 </weight>
<weight id="1511" MUR="1.0" MUF="1.0" PDF="90245" > PDF=90200 MemberID=45 </weight>
<weight id="1512" MUR="1.0" MUF="1.0" PDF="90246" > PDF=90200 MemberID=46 </weight>
<weight id="1513" MUR="1.0" MUF="1.0" PDF="90247" > PDF=90200 MemberID=47 </weight>
<weight id="1514" MUR="1.0" MUF="1.0" PDF="90248" > PDF=90200 MemberID=48 </weight>
<weight id="1515" MUR="1.0" MUF="1.0" PDF="90249" > PDF=90200 MemberID=49 </weight>
<weight id="1516" MUR="1.0" MUF="1.0" PDF="90250" > PDF=90200 MemberID=50 </weight>
<weight id="1517" MUR="1.0" MUF="1.0" PDF="90251" > PDF=90200 MemberID=51 </weight>
<weight id="1518" MUR="1.0" MUF="1.0" PDF="90252" > PDF=90200 MemberID=52 </weight>
<weight id="1519" MUR="1.0" MUF="1.0" PDF="90253" > PDF=90200 MemberID=53 </weight>
<weight id="1520" MUR="1.0" MUF="1.0" PDF="90254" > PDF=90200 MemberID=54 </weight>
<weight id="1521" MUR="1.0" MUF="1.0" PDF="90255" > PDF=90200 MemberID=55 </weight>
<weight id="1522" MUR="1.0" MUF="1.0" PDF="90256" > PDF=90200 MemberID=56 </weight>
<weight id="1523" MUR="1.0" MUF="1.0" PDF="90257" > PDF=90200 MemberID=57 </weight>
<weight id="1524" MUR="1.0" MUF="1.0" PDF="90258" > PDF=90200 MemberID=58 </weight>
<weight id="1525" MUR="1.0" MUF="1.0" PDF="90259" > PDF=90200 MemberID=59 </weight>
<weight id="1526" MUR="1.0" MUF="1.0" PDF="90260" > PDF=90200 MemberID=60 </weight>
<weight id="1527" MUR="1.0" MUF="1.0" PDF="90261" > PDF=90200 MemberID=61 </weight>
<weight id="1528" MUR="1.0" MUF="1.0" PDF="90262" > PDF=90200 MemberID=62 </weight>
<weight id="1529" MUR="1.0" MUF="1.0" PDF="90263" > PDF=90200 MemberID=63 </weight>
<weight id="1530" MUR="1.0" MUF="1.0" PDF="90264" > PDF=90200 MemberID=64 </weight>
<weight id="1531" MUR="1.0" MUF="1.0" PDF="90265" > PDF=90200 MemberID=65 </weight>
<weight id="1532" MUR="1.0" MUF="1.0" PDF="90266" > PDF=90200 MemberID=66 </weight>
<weight id="1533" MUR="1.0" MUF="1.0" PDF="90267" > PDF=90200 MemberID=67 </weight>
<weight id="1534" MUR="1.0" MUF="1.0" PDF="90268" > PDF=90200 MemberID=68 </weight>
<weight id="1535" MUR="1.0" MUF="1.0" PDF="90269" > PDF=90200 MemberID=69 </weight>
<weight id="1536" MUR="1.0" MUF="1.0" PDF="90270" > PDF=90200 MemberID=70 </weight>
<weight id="1537" MUR="1.0" MUF="1.0" PDF="90271" > PDF=90200 MemberID=71 </weight>
<weight id="1538" MUR="1.0" MUF="1.0" PDF="90272" > PDF=90200 MemberID=72 </weight>
<weight id="1539" MUR="1.0" MUF="1.0" PDF="90273" > PDF=90200 MemberID=73 </weight>
<weight id="1540" MUR="1.0" MUF="1.0" PDF="90274" > PDF=90200 MemberID=74 </weight>
<weight id="1541" MUR="1.0" MUF="1.0" PDF="90275" > PDF=90200 MemberID=75 </weight>
<weight id="1542" MUR="1.0" MUF="1.0" PDF="90276" > PDF=90200 MemberID=76 </weight>
<weight id="1543" MUR="1.0" MUF="1.0" PDF="90277" > PDF=90200 MemberID=77 </weight>
<weight id="1544" MUR="1.0" MUF="1.0" PDF="90278" > PDF=90200 MemberID=78 </weight>
<weight id="1545" MUR="1.0" MUF="1.0" PDF="90279" > PDF=90200 MemberID=79 </weight>
<weight id="1546" MUR="1.0" MUF="1.0" PDF="90280" > PDF=90200 MemberID=80 </weight>
<weight id="1547" MUR="1.0" MUF="1.0" PDF="90281" > PDF=90200 MemberID=81 </weight>
<weight id="1548" MUR="1.0" MUF="1.0" PDF="90282" > PDF=90200 MemberID=82 </weight>
<weight id="1549" MUR="1.0" MUF="1.0" PDF="90283" > PDF=90200 MemberID=83 </weight>
<weight id="1550" MUR="1.0" MUF="1.0" PDF="90284" > PDF=90200 MemberID=84 </weight>
<weight id="1551" MUR="1.0" MUF="1.0" PDF="90285" > PDF=90200 MemberID=85 </weight>
<weight id="1552" MUR="1.0" MUF="1.0" PDF="90286" > PDF=90200 MemberID=86 </weight>
<weight id="1553" MUR="1.0" MUF="1.0" PDF="90287" > PDF=90200 MemberID=87 </weight>
<weight id="1554" MUR="1.0" MUF="1.0" PDF="90288" > PDF=90200 MemberID=88 </weight>
<weight id="1555" MUR="1.0" MUF="1.0" PDF="90289" > PDF=90200 MemberID=89 </weight>
<weight id="1556" MUR="1.0" MUF="1.0" PDF="90290" > PDF=90200 MemberID=90 </weight>
<weight id="1557" MUR="1.0" MUF="1.0" PDF="90291" > PDF=90200 MemberID=91 </weight>
<weight id="1558" MUR="1.0" MUF="1.0" PDF="90292" > PDF=90200 MemberID=92 </weight>
<weight id="1559" MUR="1.0" MUF="1.0" PDF="90293" > PDF=90200 MemberID=93 </weight>
<weight id="1560" MUR="1.0" MUF="1.0" PDF="90294" > PDF=90200 MemberID=94 </weight>
<weight id="1561" MUR="1.0" MUF="1.0" PDF="90295" > PDF=90200 MemberID=95 </weight>
<weight id="1562" MUR="1.0" MUF="1.0" PDF="90296" > PDF=90200 MemberID=96 </weight>
<weight id="1563" MUR="1.0" MUF="1.0" PDF="90297" > PDF=90200 MemberID=97 </weight>
<weight id="1564" MUR="1.0" MUF="1.0" PDF="90298" > PDF=90200 MemberID=98 </weight>
<weight id="1565" MUR="1.0" MUF="1.0" PDF="90299" > PDF=90200 MemberID=99 </weight>
<weight id="1566" MUR="1.0" MUF="1.0" PDF="90300" > PDF=90200 MemberID=100 </weight>
<weight id="1567" MUR="1.0" MUF="1.0" PDF="90301" > PDF=90200 MemberID=101 </weight>
<weight id="1568" MUR="1.0" MUF="1.0" PDF="90302" > PDF=90200 MemberID=102 </weight>
</weightgroup> # PDFSET -> PDFSET
<weightgroup name="PDF4LHC15_nnlo_100_pdfas" combine="symmhessian+as"> # 91200: PDF4LHC15_nnlo_100_pdfas. mem=0 ; alphas(MZ)=0.118 central value; mem=1-100 ; PDF symmetric eigenvectors; mem=101 ; alphas(MZ)=0.1165 central value; mem=102 ; alphas(MZ)=0.1195
<weight id="1569" MUR="1.0" MUF="1.0" PDF="91200" > PDF=91200 MemberID=0 </weight>
<weight id="1570" MUR="1.0" MUF="1.0" PDF="91201" > PDF=91200 MemberID=1 </weight>
<weight id="1571" MUR="1.0" MUF="1.0" PDF="91202" > PDF=91200 MemberID=2 </weight>
<weight id="1572" MUR="1.0" MUF="1.0" PDF="91203" > PDF=91200 MemberID=3 </weight>
<weight id="1573" MUR="1.0" MUF="1.0" PDF="91204" > PDF=91200 MemberID=4 </weight>
<weight id="1574" MUR="1.0" MUF="1.0" PDF="91205" > PDF=91200 MemberID=5 </weight>
<weight id="1575" MUR="1.0" MUF="1.0" PDF="91206" > PDF=91200 MemberID=6 </weight>
<weight id="1576" MUR="1.0" MUF="1.0" PDF="91207" > PDF=91200 MemberID=7 </weight>
<weight id="1577" MUR="1.0" MUF="1.0" PDF="91208" > PDF=91200 MemberID=8 </weight>
<weight id="1578" MUR="1.0" MUF="1.0" PDF="91209" > PDF=91200 MemberID=9 </weight>
<weight id="1579" MUR="1.0" MUF="1.0" PDF="91210" > PDF=91200 MemberID=10 </weight>
<weight id="1580" MUR="1.0" MUF="1.0" PDF="91211" > PDF=91200 MemberID=11 </weight>
<weight id="1581" MUR="1.0" MUF="1.0" PDF="91212" > PDF=91200 MemberID=12 </weight>
<weight id="1582" MUR="1.0" MUF="1.0" PDF="91213" > PDF=91200 MemberID=13 </weight>
<weight id="1583" MUR="1.0" MUF="1.0" PDF="91214" > PDF=91200 MemberID=14 </weight>
<weight id="1584" MUR="1.0" MUF="1.0" PDF="91215" > PDF=91200 MemberID=15 </weight>
<weight id="1585" MUR="1.0" MUF="1.0" PDF="91216" > PDF=91200 MemberID=16 </weight>
<weight id="1586" MUR="1.0" MUF="1.0" PDF="91217" > PDF=91200 MemberID=17 </weight>
<weight id="1587" MUR="1.0" MUF="1.0" PDF="91218" > PDF=91200 MemberID=18 </weight>
<weight id="1588" MUR="1.0" MUF="1.0" PDF="91219" > PDF=91200 MemberID=19 </weight>
<weight id="1589" MUR="1.0" MUF="1.0" PDF="91220" > PDF=91200 MemberID=20 </weight>
<weight id="1590" MUR="1.0" MUF="1.0" PDF="91221" > PDF=91200 MemberID=21 </weight>
<weight id="1591" MUR="1.0" MUF="1.0" PDF="91222" > PDF=91200 MemberID=22 </weight>
<weight id="1592" MUR="1.0" MUF="1.0" PDF="91223" > PDF=91200 MemberID=23 </weight>
<weight id="1593" MUR="1.0" MUF="1.0" PDF="91224" > PDF=91200 MemberID=24 </weight>
<weight id="1594" MUR="1.0" MUF="1.0" PDF="91225" > PDF=91200 MemberID=25 </weight>
<weight id="1595" MUR="1.0" MUF="1.0" PDF="91226" > PDF=91200 MemberID=26 </weight>
<weight id="1596" MUR="1.0" MUF="1.0" PDF="91227" > PDF=91200 MemberID=27 </weight>
<weight id="1597" MUR="1.0" MUF="1.0" PDF="91228" > PDF=91200 MemberID=28 </weight>
<weight id="1598" MUR="1.0" MUF="1.0" PDF="91229" > PDF=91200 MemberID=29 </weight>
<weight id="1599" MUR="1.0" MUF="1.0" PDF="91230" > PDF=91200 MemberID=30 </weight>
<weight id="1600" MUR="1.0" MUF="1.0" PDF="91231" > PDF=91200 MemberID=31 </weight>
<weight id="1601" MUR="1.0" MUF="1.0" PDF="91232" > PDF=91200 MemberID=32 </weight>
<weight id="1602" MUR="1.0" MUF="1.0" PDF="91233" > PDF=91200 MemberID=33 </weight>
<weight id="1603" MUR="1.0" MUF="1.0" PDF="91234" > PDF=91200 MemberID=34 </weight>
<weight id="1604" MUR="1.0" MUF="1.0" PDF="91235" > PDF=91200 MemberID=35 </weight>
<weight id="1605" MUR="1.0" MUF="1.0" PDF="91236" > PDF=91200 MemberID=36 </weight>
<weight id="1606" MUR="1.0" MUF="1.0" PDF="91237" > PDF=91200 MemberID=37 </weight>
<weight id="1607" MUR="1.0" MUF="1.0" PDF="91238" > PDF=91200 MemberID=38 </weight>
<weight id="1608" MUR="1.0" MUF="1.0" PDF="91239" > PDF=91200 MemberID=39 </weight>
<weight id="1609" MUR="1.0" MUF="1.0" PDF="91240" > PDF=91200 MemberID=40 </weight>
<weight id="1610" MUR="1.0" MUF="1.0" PDF="91241" > PDF=91200 MemberID=41 </weight>
<weight id="1611" MUR="1.0" MUF="1.0" PDF="91242" > PDF=91200 MemberID=42 </weight>
<weight id="1612" MUR="1.0" MUF="1.0" PDF="91243" > PDF=91200 MemberID=43 </weight>
<weight id="1613" MUR="1.0" MUF="1.0" PDF="91244" > PDF=91200 MemberID=44 </weight>
<weight id="1614" MUR="1.0" MUF="1.0" PDF="91245" > PDF=91200 MemberID=45 </weight>
<weight id="1615" MUR="1.0" MUF="1.0" PDF="91246" > PDF=91200 MemberID=46 </weight>
<weight id="1616" MUR="1.0" MUF="1.0" PDF="91247" > PDF=91200 MemberID=47 </weight>
<weight id="1617" MUR="1.0" MUF="1.0" PDF="91248" > PDF=91200 MemberID=48 </weight>
<weight id="1618" MUR="1.0" MUF="1.0" PDF="91249" > PDF=91200 MemberID=49 </weight>
<weight id="1619" MUR="1.0" MUF="1.0" PDF="91250" > PDF=91200 MemberID=50 </weight>
<weight id="1620" MUR="1.0" MUF="1.0" PDF="91251" > PDF=91200 MemberID=51 </weight>
<weight id="1621" MUR="1.0" MUF="1.0" PDF="91252" > PDF=91200 MemberID=52 </weight>
<weight id="1622" MUR="1.0" MUF="1.0" PDF="91253" > PDF=91200 MemberID=53 </weight>
<weight id="1623" MUR="1.0" MUF="1.0" PDF="91254" > PDF=91200 MemberID=54 </weight>
<weight id="1624" MUR="1.0" MUF="1.0" PDF="91255" > PDF=91200 MemberID=55 </weight>
<weight id="1625" MUR="1.0" MUF="1.0" PDF="91256" > PDF=91200 MemberID=56 </weight>
<weight id="1626" MUR="1.0" MUF="1.0" PDF="91257" > PDF=91200 MemberID=57 </weight>
<weight id="1627" MUR="1.0" MUF="1.0" PDF="91258" > PDF=91200 MemberID=58 </weight>
<weight id="1628" MUR="1.0" MUF="1.0" PDF="91259" > PDF=91200 MemberID=59 </weight>
<weight id="1629" MUR="1.0" MUF="1.0" PDF="91260" > PDF=91200 MemberID=60 </weight>
<weight id="1630" MUR="1.0" MUF="1.0" PDF="91261" > PDF=91200 MemberID=61 </weight>
<weight id="1631" MUR="1.0" MUF="1.0" PDF="91262" > PDF=91200 MemberID=62 </weight>
<weight id="1632" MUR="1.0" MUF="1.0" PDF="91263" > PDF=91200 MemberID=63 </weight>
<weight id="1633" MUR="1.0" MUF="1.0" PDF="91264" > PDF=91200 MemberID=64 </weight>
<weight id="1634" MUR="1.0" MUF="1.0" PDF="91265" > PDF=91200 MemberID=65 </weight>
<weight id="1635" MUR="1.0" MUF="1.0" PDF="91266" > PDF=91200 MemberID=66 </weight>
<weight id="1636" MUR="1.0" MUF="1.0" PDF="91267" > PDF=91200 MemberID=67 </weight>
<weight id="1637" MUR="1.0" MUF="1.0" PDF="91268" > PDF=91200 MemberID=68 </weight>
<weight id="1638" MUR="1.0" MUF="1.0" PDF="91269" > PDF=91200 MemberID=69 </weight>
<weight id="1639" MUR="1.0" MUF="1.0" PDF="91270" > PDF=91200 MemberID=70 </weight>
<weight id="1640" MUR="1.0" MUF="1.0" PDF="91271" > PDF=91200 MemberID=71 </weight>
<weight id="1641" MUR="1.0" MUF="1.0" PDF="91272" > PDF=91200 MemberID=72 </weight>
<weight id="1642" MUR="1.0" MUF="1.0" PDF="91273" > PDF=91200 MemberID=73 </weight>
<weight id="1643" MUR="1.0" MUF="1.0" PDF="91274" > PDF=91200 MemberID=74 </weight>
<weight id="1644" MUR="1.0" MUF="1.0" PDF="91275" > PDF=91200 MemberID=75 </weight>
<weight id="1645" MUR="1.0" MUF="1.0" PDF="91276" > PDF=91200 MemberID=76 </weight>
<weight id="1646" MUR="1.0" MUF="1.0" PDF="91277" > PDF=91200 MemberID=77 </weight>
<weight id="1647" MUR="1.0" MUF="1.0" PDF="91278" > PDF=91200 MemberID=78 </weight>
<weight id="1648" MUR="1.0" MUF="1.0" PDF="91279" > PDF=91200 MemberID=79 </weight>
<weight id="1649" MUR="1.0" MUF="1.0" PDF="91280" > PDF=91200 MemberID=80 </weight>
<weight id="1650" MUR="1.0" MUF="1.0" PDF="91281" > PDF=91200 MemberID=81 </weight>
<weight id="1651" MUR="1.0" MUF="1.0" PDF="91282" > PDF=91200 MemberID=82 </weight>
<weight id="1652" MUR="1.0" MUF="1.0" PDF="91283" > PDF=91200 MemberID=83 </weight>
<weight id="1653" MUR="1.0" MUF="1.0" PDF="91284" > PDF=91200 MemberID=84 </weight>
<weight id="1654" MUR="1.0" MUF="1.0" PDF="91285" > PDF=91200 MemberID=85 </weight>
<weight id="1655" MUR="1.0" MUF="1.0" PDF="91286" > PDF=91200 MemberID=86 </weight>
<weight id="1656" MUR="1.0" MUF="1.0" PDF="91287" > PDF=91200 MemberID=87 </weight>
<weight id="1657" MUR="1.0" MUF="1.0" PDF="91288" > PDF=91200 MemberID=88 </weight>
<weight id="1658" MUR="1.0" MUF="1.0" PDF="91289" > PDF=91200 MemberID=89 </weight>
<weight id="1659" MUR="1.0" MUF="1.0" PDF="91290" > PDF=91200 MemberID=90 </weight>
<weight id="1660" MUR="1.0" MUF="1.0" PDF="91291" > PDF=91200 MemberID=91 </weight>
<weight id="1661" MUR="1.0" MUF="1.0" PDF="91292" > PDF=91200 MemberID=92 </weight>
<weight id="1662" MUR="1.0" MUF="1.0" PDF="91293" > PDF=91200 MemberID=93 </weight>
<weight id="1663" MUR="1.0" MUF="1.0" PDF="91294" > PDF=91200 MemberID=94 </weight>
<weight id="1664" MUR="1.0" MUF="1.0" PDF="91295" > PDF=91200 MemberID=95 </weight>
<weight id="1665" MUR="1.0" MUF="1.0" PDF="91296" > PDF=91200 MemberID=96 </weight>
<weight id="1666" MUR="1.0" MUF="1.0" PDF="91297" > PDF=91200 MemberID=97 </weight>
<weight id="1667" MUR="1.0" MUF="1.0" PDF="91298" > PDF=91200 MemberID=98 </weight>
<weight id="1668" MUR="1.0" MUF="1.0" PDF="91299" > PDF=91200 MemberID=99 </weight>
<weight id="1669" MUR="1.0" MUF="1.0" PDF="91300" > PDF=91200 MemberID=100 </weight>
<weight id="1670" MUR="1.0" MUF="1.0" PDF="91301" > PDF=91200 MemberID=101 </weight>
<weight id="1671" MUR="1.0" MUF="1.0" PDF="91302" > PDF=91200 MemberID=102 </weight>
</weightgroup> # PDFSET -> PDFSET
<weightgroup name="PDF4LHC15_nlo_30_pdfas" combine="symmhessian+as"> # 90400: PDF4LHC15_nlo_30_pdfas. mem=0 ; alphas(MZ)=0.118 central value; mem=1-30 ; PDF symmetric eigenvectors; mem=31 ; alphas(MZ)=0.1165 central value; mem=32 ; alphas(MZ)=0.1195
<weight id="1672" MUR="1.0" MUF="1.0" PDF="90400" > PDF=90400 MemberID=0 </weight>
<weight id="1673" MUR="1.0" MUF="1.0" PDF="90401" > PDF=90400 MemberID=1 </weight>
<weight id="1674" MUR="1.0" MUF="1.0" PDF="90402" > PDF=90400 MemberID=2 </weight>
<weight id="1675" MUR="1.0" MUF="1.0" PDF="90403" > PDF=90400 MemberID=3 </weight>
<weight id="1676" MUR="1.0" MUF="1.0" PDF="90404" > PDF=90400 MemberID=4 </weight>
<weight id="1677" MUR="1.0" MUF="1.0" PDF="90405" > PDF=90400 MemberID=5 </weight>
<weight id="1678" MUR="1.0" MUF="1.0" PDF="90406" > PDF=90400 MemberID=6 </weight>
<weight id="1679" MUR="1.0" MUF="1.0" PDF="90407" > PDF=90400 MemberID=7 </weight>
<weight id="1680" MUR="1.0" MUF="1.0" PDF="90408" > PDF=90400 MemberID=8 </weight>
<weight id="1681" MUR="1.0" MUF="1.0" PDF="90409" > PDF=90400 MemberID=9 </weight>
<weight id="1682" MUR="1.0" MUF="1.0" PDF="90410" > PDF=90400 MemberID=10 </weight>
<weight id="1683" MUR="1.0" MUF="1.0" PDF="90411" > PDF=90400 MemberID=11 </weight>
<weight id="1684" MUR="1.0" MUF="1.0" PDF="90412" > PDF=90400 MemberID=12 </weight>
<weight id="1685" MUR="1.0" MUF="1.0" PDF="90413" > PDF=90400 MemberID=13 </weight>
<weight id="1686" MUR="1.0" MUF="1.0" PDF="90414" > PDF=90400 MemberID=14 </weight>
<weight id="1687" MUR="1.0" MUF="1.0" PDF="90415" > PDF=90400 MemberID=15 </weight>
<weight id="1688" MUR="1.0" MUF="1.0" PDF="90416" > PDF=90400 MemberID=16 </weight>
<weight id="1689" MUR="1.0" MUF="1.0" PDF="90417" > PDF=90400 MemberID=17 </weight>
<weight id="1690" MUR="1.0" MUF="1.0" PDF="90418" > PDF=90400 MemberID=18 </weight>
<weight id="1691" MUR="1.0" MUF="1.0" PDF="90419" > PDF=90400 MemberID=19 </weight>
<weight id="1692" MUR="1.0" MUF="1.0" PDF="90420" > PDF=90400 MemberID=20 </weight>
<weight id="1693" MUR="1.0" MUF="1.0" PDF="90421" > PDF=90400 MemberID=21 </weight>
<weight id="1694" MUR="1.0" MUF="1.0" PDF="90422" > PDF=90400 MemberID=22 </weight>
<weight id="1695" MUR="1.0" MUF="1.0" PDF="90423" > PDF=90400 MemberID=23 </weight>
<weight id="1696" MUR="1.0" MUF="1.0" PDF="90424" > PDF=90400 MemberID=24 </weight>
<weight id="1697" MUR="1.0" MUF="1.0" PDF="90425" > PDF=90400 MemberID=25 </weight>
<weight id="1698" MUR="1.0" MUF="1.0" PDF="90426" > PDF=90400 MemberID=26 </weight>
<weight id="1699" MUR="1.0" MUF="1.0" PDF="90427" > PDF=90400 MemberID=27 </weight>
<weight id="1700" MUR="1.0" MUF="1.0" PDF="90428" > PDF=90400 MemberID=28 </weight>
<weight id="1701" MUR="1.0" MUF="1.0" PDF="90429" > PDF=90400 MemberID=29 </weight>
<weight id="1702" MUR="1.0" MUF="1.0" PDF="90430" > PDF=90400 MemberID=30 </weight>
<weight id="1703" MUR="1.0" MUF="1.0" PDF="90431" > PDF=90400 MemberID=31 </weight>
<weight id="1704" MUR="1.0" MUF="1.0" PDF="90432" > PDF=90400 MemberID=32 </weight>
</weightgroup> # PDFSET -> PDFSET
<weightgroup name="PDF4LHC15_nnlo_30_pdfas" combine="symmhessian+as"> # 91400: PDF4LHC15_nnlo_30_pdfas. mem=0 ; alphas(MZ)=0.118 central value; mem=1-30 ; PDF symmetric eigenvectors; mem=31 ; alphas(MZ)=0.1165 central value; mem=32 ; alphas(MZ)=0.1195
<weight id="1705" MUR="1.0" MUF="1.0" PDF="91400" > PDF=91400 MemberID=0 </weight>
<weight id="1706" MUR="1.0" MUF="1.0" PDF="91401" > PDF=91400 MemberID=1 </weight>
<weight id="1707" MUR="1.0" MUF="1.0" PDF="91402" > PDF=91400 MemberID=2 </weight>
<weight id="1708" MUR="1.0" MUF="1.0" PDF="91403" > PDF=91400 MemberID=3 </weight>
<weight id="1709" MUR="1.0" MUF="1.0" PDF="91404" > PDF=91400 MemberID=4 </weight>
<weight id="1710" MUR="1.0" MUF="1.0" PDF="91405" > PDF=91400 MemberID=5 </weight>
<weight id="1711" MUR="1.0" MUF="1.0" PDF="91406" > PDF=91400 MemberID=6 </weight>
<weight id="1712" MUR="1.0" MUF="1.0" PDF="91407" > PDF=91400 MemberID=7 </weight>
<weight id="1713" MUR="1.0" MUF="1.0" PDF="91408" > PDF=91400 MemberID=8 </weight>
<weight id="1714" MUR="1.0" MUF="1.0" PDF="91409" > PDF=91400 MemberID=9 </weight>
<weight id="1715" MUR="1.0" MUF="1.0" PDF="91410" > PDF=91400 MemberID=10 </weight>
<weight id="1716" MUR="1.0" MUF="1.0" PDF="91411" > PDF=91400 MemberID=11 </weight>
<weight id="1717" MUR="1.0" MUF="1.0" PDF="91412" > PDF=91400 MemberID=12 </weight>
<weight id="1718" MUR="1.0" MUF="1.0" PDF="91413" > PDF=91400 MemberID=13 </weight>
<weight id="1719" MUR="1.0" MUF="1.0" PDF="91414" > PDF=91400 MemberID=14 </weight>
<weight id="1720" MUR="1.0" MUF="1.0" PDF="91415" > PDF=91400 MemberID=15 </weight>
<weight id="1721" MUR="1.0" MUF="1.0" PDF="91416" > PDF=91400 MemberID=16 </weight>
<weight id="1722" MUR="1.0" MUF="1.0" PDF="91417" > PDF=91400 MemberID=17 </weight>
<weight id="1723" MUR="1.0" MUF="1.0" PDF="91418" > PDF=91400 MemberID=18 </weight>
<weight id="1724" MUR="1.0" MUF="1.0" PDF="91419" > PDF=91400 MemberID=19 </weight>
<weight id="1725" MUR="1.0" MUF="1.0" PDF="91420" > PDF=91400 MemberID=20 </weight>
<weight id="1726" MUR="1.0" MUF="1.0" PDF="91421" > PDF=91400 MemberID=21 </weight>
<weight id="1727" MUR="1.0" MUF="1.0" PDF="91422" > PDF=91400 MemberID=22 </weight>
<weight id="1728" MUR="1.0" MUF="1.0" PDF="91423" > PDF=91400 MemberID=23 </weight>
<weight id="1729" MUR="1.0" MUF="1.0" PDF="91424" > PDF=91400 MemberID=24 </weight>
<weight id="1730" MUR="1.0" MUF="1.0" PDF="91425" > PDF=91400 MemberID=25 </weight>
<weight id="1731" MUR="1.0" MUF="1.0" PDF="91426" > PDF=91400 MemberID=26 </weight>
<weight id="1732" MUR="1.0" MUF="1.0" PDF="91427" > PDF=91400 MemberID=27 </weight>
<weight id="1733" MUR="1.0" MUF="1.0" PDF="91428" > PDF=91400 MemberID=28 </weight>
<weight id="1734" MUR="1.0" MUF="1.0" PDF="91429" > PDF=91400 MemberID=29 </weight>
<weight id="1735" MUR="1.0" MUF="1.0" PDF="91430" > PDF=91400 MemberID=30 </weight>
<weight id="1736" MUR="1.0" MUF="1.0" PDF="91431" > PDF=91400 MemberID=31 </weight>
<weight id="1737" MUR="1.0" MUF="1.0" PDF="91432" > PDF=91400 MemberID=32 </weight>
</weightgroup> # PDFSET -> PDFSET
<weightgroup name="HERAPDF20_NLO_EIG" combine="hessian"> # 61100: HERAPDF20 NLO (Q2min=3.5) fit and experimental uncertainty variations. The 28 error PDFs should be treated two by two as the up and down excursions along 14 eigenvectors, such that the symmetric error is calculated as the quadrature sum of [Sum i=1,14 of (var i+1 - var i)/2 ], or if asymmetric errors are desired according to Eqn 43 of Campbell, Huston and Stirling hep-ph/0611148. mem=0 ; central; mem=1-28 ; error eigenvectors.
<weight id="1738" MUR="1.0" MUF="1.0" PDF="61100" > PDF=61100 MemberID=0 </weight>
<weight id="1739" MUR="1.0" MUF="1.0" PDF="61101" > PDF=61100 MemberID=1 </weight>
<weight id="1740" MUR="1.0" MUF="1.0" PDF="61102" > PDF=61100 MemberID=2 </weight>
<weight id="1741" MUR="1.0" MUF="1.0" PDF="61103" > PDF=61100 MemberID=3 </weight>
<weight id="1742" MUR="1.0" MUF="1.0" PDF="61104" > PDF=61100 MemberID=4 </weight>
<weight id="1743" MUR="1.0" MUF="1.0" PDF="61105" > PDF=61100 MemberID=5 </weight>
<weight id="1744" MUR="1.0" MUF="1.0" PDF="61106" > PDF=61100 MemberID=6 </weight>
<weight id="1745" MUR="1.0" MUF="1.0" PDF="61107" > PDF=61100 MemberID=7 </weight>
<weight id="1746" MUR="1.0" MUF="1.0" PDF="61108" > PDF=61100 MemberID=8 </weight>
<weight id="1747" MUR="1.0" MUF="1.0" PDF="61109" > PDF=61100 MemberID=9 </weight>
<weight id="1748" MUR="1.0" MUF="1.0" PDF="61110" > PDF=61100 MemberID=10 </weight>
<weight id="1749" MUR="1.0" MUF="1.0" PDF="61111" > PDF=61100 MemberID=11 </weight>
<weight id="1750" MUR="1.0" MUF="1.0" PDF="61112" > PDF=61100 MemberID=12 </weight>
<weight id="1751" MUR="1.0" MUF="1.0" PDF="61113" > PDF=61100 MemberID=13 </weight>
<weight id="1752" MUR="1.0" MUF="1.0" PDF="61114" > PDF=61100 MemberID=14 </weight>
<weight id="1753" MUR="1.0" MUF="1.0" PDF="61115" > PDF=61100 MemberID=15 </weight>
<weight id="1754" MUR="1.0" MUF="1.0" PDF="61116" > PDF=61100 MemberID=16 </weight>
<weight id="1755" MUR="1.0" MUF="1.0" PDF="61117" > PDF=61100 MemberID=17 </weight>
<weight id="1756" MUR="1.0" MUF="1.0" PDF="61118" > PDF=61100 MemberID=18 </weight>
<weight id="1757" MUR="1.0" MUF="1.0" PDF="61119" > PDF=61100 MemberID=19 </weight>
<weight id="1758" MUR="1.0" MUF="1.0" PDF="61120" > PDF=61100 MemberID=20 </weight>
<weight id="1759" MUR="1.0" MUF="1.0" PDF="61121" > PDF=61100 MemberID=21 </weight>
<weight id="1760" MUR="1.0" MUF="1.0" PDF="61122" > PDF=61100 MemberID=22 </weight>
<weight id="1761" MUR="1.0" MUF="1.0" PDF="61123" > PDF=61100 MemberID=23 </weight>
<weight id="1762" MUR="1.0" MUF="1.0" PDF="61124" > PDF=61100 MemberID=24 </weight>
<weight id="1763" MUR="1.0" MUF="1.0" PDF="61125" > PDF=61100 MemberID=25 </weight>
<weight id="1764" MUR="1.0" MUF="1.0" PDF="61126" > PDF=61100 MemberID=26 </weight>
<weight id="1765" MUR="1.0" MUF="1.0" PDF="61127" > PDF=61100 MemberID=27 </weight>
<weight id="1766" MUR="1.0" MUF="1.0" PDF="61128" > PDF=61100 MemberID=28 </weight>
</weightgroup> # PDFSET -> PDFSET
<weightgroup name="HERAPDF20_NLO_VAR" combine="custom"> # 61130: HERAPDF20 NLO variations of fit parameters. Member 0 is the central fit. The 1-10 variations are considered as model errors and should be treated one by one, by taking the difference between the variation and the central value, and then adding in quadrature all positive (negative) differences to obtain the positive (negative) model error. Variations 11 to 13 are the maximal parametrisation variations; the largest positive (negative) difference between the variation and the central value is taken as the positive (negative) parametrisation error and added in quadrature to the model errors to form the parametrisation envelope. mem=0 ; central (fs=0.4,mb=4.5,mc=1.47,q20=1.9,q2min=3.5,a_s(MZ)=0.118); mem=1 ; fs=0.3;                mem=2 ; fs=0.5; mem=3 ; fs=hermesfs-03;        mem=4 ; fs=hermesfs-05 mem=5 ; q2cut=2.5;             mem=6 ; q2cut=5.; mem=7 ; mb=4.25;               mem=8 ; mb=4.75; mem=9 ; mc=1.41;               mem=10 ; mc=1.53; mem=11 ; par2(Q0 1.6, mc1.47); mem=12 ; par3 (Q0 2.2, mc1.53); mem=13 ; par4(Duv);
<weight id="1767" MUR="1.0" MUF="1.0" PDF="61130" > PDF=61130 MemberID=0 </weight>
<weight id="1768" MUR="1.0" MUF="1.0" PDF="61131" > PDF=61130 MemberID=1 </weight>
<weight id="1769" MUR="1.0" MUF="1.0" PDF="61132" > PDF=61130 MemberID=2 </weight>
<weight id="1770" MUR="1.0" MUF="1.0" PDF="61133" > PDF=61130 MemberID=3 </weight>
<weight id="1771" MUR="1.0" MUF="1.0" PDF="61134" > PDF=61130 MemberID=4 </weight>
<weight id="1772" MUR="1.0" MUF="1.0" PDF="61135" > PDF=61130 MemberID=5 </weight>
<weight id="1773" MUR="1.0" MUF="1.0" PDF="61136" > PDF=61130 MemberID=6 </weight>
<weight id="1774" MUR="1.0" MUF="1.0" PDF="61137" > PDF=61130 MemberID=7 </weight>
<weight id="1775" MUR="1.0" MUF="1.0" PDF="61138" > PDF=61130 MemberID=8 </weight>
<weight id="1776" MUR="1.0" MUF="1.0" PDF="61139" > PDF=61130 MemberID=9 </weight>
<weight id="1777" MUR="1.0" MUF="1.0" PDF="61140" > PDF=61130 MemberID=10 </weight>
<weight id="1778" MUR="1.0" MUF="1.0" PDF="61141" > PDF=61130 MemberID=11 </weight>
<weight id="1779" MUR="1.0" MUF="1.0" PDF="61142" > PDF=61130 MemberID=12 </weight>
<weight id="1780" MUR="1.0" MUF="1.0" PDF="61143" > PDF=61130 MemberID=13 </weight>
</weightgroup> # PDFSET -> PDFSET
<weightgroup name="HERAPDF20_NNLO_EIG" combine="hessian"> # 61200: HERAPDF20 NNLO (Q2min=3.5) fit and experimental uncertainty variations. The 28 error PDFs should be treated two by two as the up and down excursions along 14 eigenvectors, such that the symmetric error is calculated as the quadrature sum of [Sum i=1,14 of (var i+1 - var i)/2 ], or if asymmetric errors are desired according to Eqn 43 of Campbell, Huston and Stirling hep-ph/0611148. mem=0 ; central; mem=1-28 ; error eigenvectors.
<weight id="1781" MUR="1.0" MUF="1.0" PDF="61200" > PDF=61200 MemberID=0 </weight>
<weight id="1782" MUR="1.0" MUF="1.0" PDF="61201" > PDF=61200 MemberID=1 </weight>
<weight id="1783" MUR="1.0" MUF="1.0" PDF="61202" > PDF=61200 MemberID=2 </weight>
<weight id="1784" MUR="1.0" MUF="1.0" PDF="61203" > PDF=61200 MemberID=3 </weight>
<weight id="1785" MUR="1.0" MUF="1.0" PDF="61204" > PDF=61200 MemberID=4 </weight>
<weight id="1786" MUR="1.0" MUF="1.0" PDF="61205" > PDF=61200 MemberID=5 </weight>
<weight id="1787" MUR="1.0" MUF="1.0" PDF="61206" > PDF=61200 MemberID=6 </weight>
<weight id="1788" MUR="1.0" MUF="1.0" PDF="61207" > PDF=61200 MemberID=7 </weight>
<weight id="1789" MUR="1.0" MUF="1.0" PDF="61208" > PDF=61200 MemberID=8 </weight>
<weight id="1790" MUR="1.0" MUF="1.0" PDF="61209" > PDF=61200 MemberID=9 </weight>
<weight id="1791" MUR="1.0" MUF="1.0" PDF="61210" > PDF=61200 MemberID=10 </weight>
<weight id="1792" MUR="1.0" MUF="1.0" PDF="61211" > PDF=61200 MemberID=11 </weight>
<weight id="1793" MUR="1.0" MUF="1.0" PDF="61212" > PDF=61200 MemberID=12 </weight>
<weight id="1794" MUR="1.0" MUF="1.0" PDF="61213" > PDF=61200 MemberID=13 </weight>
<weight id="1795" MUR="1.0" MUF="1.0" PDF="61214" > PDF=61200 MemberID=14 </weight>
<weight id="1796" MUR="1.0" MUF="1.0" PDF="61215" > PDF=61200 MemberID=15 </weight>
<weight id="1797" MUR="1.0" MUF="1.0" PDF="61216" > PDF=61200 MemberID=16 </weight>
<weight id="1798" MUR="1.0" MUF="1.0" PDF="61217" > PDF=61200 MemberID=17 </weight>
<weight id="1799" MUR="1.0" MUF="1.0" PDF="61218" > PDF=61200 MemberID=18 </weight>
<weight id="1800" MUR="1.0" MUF="1.0" PDF="61219" > PDF=61200 MemberID=19 </weight>
<weight id="1801" MUR="1.0" MUF="1.0" PDF="61220" > PDF=61200 MemberID=20 </weight>
<weight id="1802" MUR="1.0" MUF="1.0" PDF="61221" > PDF=61200 MemberID=21 </weight>
<weight id="1803" MUR="1.0" MUF="1.0" PDF="61222" > PDF=61200 MemberID=22 </weight>
<weight id="1804" MUR="1.0" MUF="1.0" PDF="61223" > PDF=61200 MemberID=23 </weight>
<weight id="1805" MUR="1.0" MUF="1.0" PDF="61224" > PDF=61200 MemberID=24 </weight>
<weight id="1806" MUR="1.0" MUF="1.0" PDF="61225" > PDF=61200 MemberID=25 </weight>
<weight id="1807" MUR="1.0" MUF="1.0" PDF="61226" > PDF=61200 MemberID=26 </weight>
<weight id="1808" MUR="1.0" MUF="1.0" PDF="61227" > PDF=61200 MemberID=27 </weight>
<weight id="1809" MUR="1.0" MUF="1.0" PDF="61228" > PDF=61200 MemberID=28 </weight>
</weightgroup> # PDFSET -> PDFSET
<weightgroup name="HERAPDF20_NNLO_VAR" combine="custom"> # 61230: HERAPDF20 NNLO variations of fit parameters. Member 0 is the central fit. The 1-10 variations are considered as model errors and should be treated one by one, by taking the difference between the variation and the central value, and then adding in quadrature all positive (negative) differences to obtain the positive (negative) model error. Variations 11 to 13 are the maximal parametrisation variations; the largest positive (negative) difference between the variation and the central value is taken as the positive (negative) parametrisation error and added in quadrature to the model errors to form the parametrisation envelope. mem=0 ; central (fs=0.4,mb=4.5,mc=1.43,q20=1.9,q2min=3.5,a_s(MZ)=0.118); mem=1 ; fs=0.3;                mem=2 ; fs=0.5; mem=3 ; fs=hermesfs-03;        mem=4 ; fs=hermesfs-05 mem=5 ; q2cut=2.5;             mem=6 ; q2cut=5.; mem=7 ; mb=4.25;               mem=8 ; mb=4.75; mem=9 ; mc=1.37;               mem=10 ; mc=1.49; mem=11 ; par2(Q0 1.6, mc1.43); mem=12 ; par3 (Q0 2.2, mc1.49); mem=13 ; par4(Duv);
<weight id="1810" MUR="1.0" MUF="1.0" PDF="61230" > PDF=61230 MemberID=0 </weight>
<weight id="1811" MUR="1.0" MUF="1.0" PDF="61231" > PDF=61230 MemberID=1 </weight>
<weight id="1812" MUR="1.0" MUF="1.0" PDF="61232" > PDF=61230 MemberID=2 </weight>
<weight id="1813" MUR="1.0" MUF="1.0" PDF="61233" > PDF=61230 MemberID=3 </weight>
<weight id="1814" MUR="1.0" MUF="1.0" PDF="61234" > PDF=61230 MemberID=4 </weight>
<weight id="1815" MUR="1.0" MUF="1.0" PDF="61235" > PDF=61230 MemberID=5 </weight>
<weight id="1816" MUR="1.0" MUF="1.0" PDF="61236" > PDF=61230 MemberID=6 </weight>
<weight id="1817" MUR="1.0" MUF="1.0" PDF="61237" > PDF=61230 MemberID=7 </weight>
<weight id="1818" MUR="1.0" MUF="1.0" PDF="61238" > PDF=61230 MemberID=8 </weight>
<weight id="1819" MUR="1.0" MUF="1.0" PDF="61239" > PDF=61230 MemberID=9 </weight>
<weight id="1820" MUR="1.0" MUF="1.0" PDF="61240" > PDF=61230 MemberID=10 </weight>
<weight id="1821" MUR="1.0" MUF="1.0" PDF="61241" > PDF=61230 MemberID=11 </weight>
<weight id="1822" MUR="1.0" MUF="1.0" PDF="61242" > PDF=61230 MemberID=12 </weight>
<weight id="1823" MUR="1.0" MUF="1.0" PDF="61243" > PDF=61230 MemberID=13 </weight>
</weightgroup> # PDFSET -> PDFSET
<weightgroup name="CT14qed_inc_proton" combine="unknown"> # 13400: CT14qed_inc, NLO QCD + LO QED (inclusive photon) sets for the proton, based on CT14nlo with the initial photon PDF defined by the sum of the inelastic photon PDF and the elastic photon PDF, obtained from the equivalent photon approximation, at the initial scale Q0. The initial inelastic photon PDF is defined by the radiative ansatz and parametrized by its initial inelastic momentum fraction. (m=0 ; p=0.00%, mem=1 ; p=0.01%, mem=2 ; p=0.02%, etc., up to mem=30 ; p=0.30%). A limit of p=0.14% was found at the 90% CL in the Reference
<weight id="1824" MUR="1.0" MUF="1.0" PDF="13400" > PDF=13400 MemberID=0 </weight>
<weight id="1825" MUR="1.0" MUF="1.0" PDF="13401" > PDF=13400 MemberID=1 </weight>
<weight id="1826" MUR="1.0" MUF="1.0" PDF="13402" > PDF=13400 MemberID=2 </weight>
<weight id="1827" MUR="1.0" MUF="1.0" PDF="13403" > PDF=13400 MemberID=3 </weight>
<weight id="1828" MUR="1.0" MUF="1.0" PDF="13404" > PDF=13400 MemberID=4 </weight>
<weight id="1829" MUR="1.0" MUF="1.0" PDF="13405" > PDF=13400 MemberID=5 </weight>
<weight id="1830" MUR="1.0" MUF="1.0" PDF="13406" > PDF=13400 MemberID=6 </weight>
<weight id="1831" MUR="1.0" MUF="1.0" PDF="13407" > PDF=13400 MemberID=7 </weight>
<weight id="1832" MUR="1.0" MUF="1.0" PDF="13408" > PDF=13400 MemberID=8 </weight>
<weight id="1833" MUR="1.0" MUF="1.0" PDF="13409" > PDF=13400 MemberID=9 </weight>
<weight id="1834" MUR="1.0" MUF="1.0" PDF="13410" > PDF=13400 MemberID=10 </weight>
<weight id="1835" MUR="1.0" MUF="1.0" PDF="13411" > PDF=13400 MemberID=11 </weight>
<weight id="1836" MUR="1.0" MUF="1.0" PDF="13412" > PDF=13400 MemberID=12 </weight>
<weight id="1837" MUR="1.0" MUF="1.0" PDF="13413" > PDF=13400 MemberID=13 </weight>
<weight id="1838" MUR="1.0" MUF="1.0" PDF="13414" > PDF=13400 MemberID=14 </weight>
<weight id="1839" MUR="1.0" MUF="1.0" PDF="13415" > PDF=13400 MemberID=15 </weight>
<weight id="1840" MUR="1.0" MUF="1.0" PDF="13416" > PDF=13400 MemberID=16 </weight>
<weight id="1841" MUR="1.0" MUF="1.0" PDF="13417" > PDF=13400 MemberID=17 </weight>
<weight id="1842" MUR="1.0" MUF="1.0" PDF="13418" > PDF=13400 MemberID=18 </weight>
<weight id="1843" MUR="1.0" MUF="1.0" PDF="13419" > PDF=13400 MemberID=19 </weight>
<weight id="1844" MUR="1.0" MUF="1.0" PDF="13420" > PDF=13400 MemberID=20 </weight>
<weight id="1845" MUR="1.0" MUF="1.0" PDF="13421" > PDF=13400 MemberID=21 </weight>
<weight id="1846" MUR="1.0" MUF="1.0" PDF="13422" > PDF=13400 MemberID=22 </weight>
<weight id="1847" MUR="1.0" MUF="1.0" PDF="13423" > PDF=13400 MemberID=23 </weight>
<weight id="1848" MUR="1.0" MUF="1.0" PDF="13424" > PDF=13400 MemberID=24 </weight>
<weight id="1849" MUR="1.0" MUF="1.0" PDF="13425" > PDF=13400 MemberID=25 </weight>
<weight id="1850" MUR="1.0" MUF="1.0" PDF="13426" > PDF=13400 MemberID=26 </weight>
<weight id="1851" MUR="1.0" MUF="1.0" PDF="13427" > PDF=13400 MemberID=27 </weight>
<weight id="1852" MUR="1.0" MUF="1.0" PDF="13428" > PDF=13400 MemberID=28 </weight>
<weight id="1853" MUR="1.0" MUF="1.0" PDF="13429" > PDF=13400 MemberID=29 </weight>
<weight id="1854" MUR="1.0" MUF="1.0" PDF="13430" > PDF=13400 MemberID=30 </weight>
</weightgroup> # PDFSET -> PDFSET
<weightgroup name="LUXqed_plus_PDF4LHC15_nnlo_100" combine="symmhessian"> # 82000: LUXqed_plus_PDF4LHC15_nnlo_100: this set combines QCD partons from PDF4LHC15_nnlo_100 with the LUXqed photon determination.
PDF4LHC15_nnlo_100 description:
  PDF4LHC15_nnlo_100. mem=0 ; alphas(MZ)=0.118 central value; mem=1-100
  ; PDF symmetric eigenvectors
LUXqed description:
  Determination of the low Q^2 photon component from A1, CLAS and Hermes GD11-P
  fits. High-Q^2 part from the input QCD PDF with standard coefficient functions.
  Photon generated at scale 100.0 GeV, other partons matched at scale
  10.0 GeV, photon momentum absorbed by adjusting g(x) -.gt. g(x) -
  0.00701 * x^{0.000} g(x) at scale 10.0 GeV
Members:
  0 is central
  1-100 map to original PDF members
  101 replacement of CLAS resonance fit with Christy-Bosted fit
  102 rescale R in low-Q^2 region by 1.5
  103 rescale R in high-Q^2 region with a higher-twist component
  104 use an elastic fit result without the two-photon exchange corrections
  105 use the lower edge of the elastic fit error band
  106 lower the transition from Hermes GD11-P to the PDF-based F2,FL determinations to 5 GeV^2
  107 change the upper limit of the Q^2 integral in Eq.(6) of arXiv:1607.04266 to mu^2
        (with appropriate change of last term of Eq.(6) to maintain accuracy)
<weight id="1855" MUR="1.0" MUF="1.0" PDF="82000" > PDF=82000 MemberID=0 </weight>
<weight id="1856" MUR="1.0" MUF="1.0" PDF="82001" > PDF=82000 MemberID=1 </weight>
<weight id="1857" MUR="1.0" MUF="1.0" PDF="82002" > PDF=82000 MemberID=2 </weight>
<weight id="1858" MUR="1.0" MUF="1.0" PDF="82003" > PDF=82000 MemberID=3 </weight>
<weight id="1859" MUR="1.0" MUF="1.0" PDF="82004" > PDF=82000 MemberID=4 </weight>
<weight id="1860" MUR="1.0" MUF="1.0" PDF="82005" > PDF=82000 MemberID=5 </weight>
<weight id="1861" MUR="1.0" MUF="1.0" PDF="82006" > PDF=82000 MemberID=6 </weight>
<weight id="1862" MUR="1.0" MUF="1.0" PDF="82007" > PDF=82000 MemberID=7 </weight>
<weight id="1863" MUR="1.0" MUF="1.0" PDF="82008" > PDF=82000 MemberID=8 </weight>
<weight id="1864" MUR="1.0" MUF="1.0" PDF="82009" > PDF=82000 MemberID=9 </weight>
<weight id="1865" MUR="1.0" MUF="1.0" PDF="82010" > PDF=82000 MemberID=10 </weight>
<weight id="1866" MUR="1.0" MUF="1.0" PDF="82011" > PDF=82000 MemberID=11 </weight>
<weight id="1867" MUR="1.0" MUF="1.0" PDF="82012" > PDF=82000 MemberID=12 </weight>
<weight id="1868" MUR="1.0" MUF="1.0" PDF="82013" > PDF=82000 MemberID=13 </weight>
<weight id="1869" MUR="1.0" MUF="1.0" PDF="82014" > PDF=82000 MemberID=14 </weight>
<weight id="1870" MUR="1.0" MUF="1.0" PDF="82015" > PDF=82000 MemberID=15 </weight>
<weight id="1871" MUR="1.0" MUF="1.0" PDF="82016" > PDF=82000 MemberID=16 </weight>
<weight id="1872" MUR="1.0" MUF="1.0" PDF="82017" > PDF=82000 MemberID=17 </weight>
<weight id="1873" MUR="1.0" MUF="1.0" PDF="82018" > PDF=82000 MemberID=18 </weight>
<weight id="1874" MUR="1.0" MUF="1.0" PDF="82019" > PDF=82000 MemberID=19 </weight>
<weight id="1875" MUR="1.0" MUF="1.0" PDF="82020" > PDF=82000 MemberID=20 </weight>
<weight id="1876" MUR="1.0" MUF="1.0" PDF="82021" > PDF=82000 MemberID=21 </weight>
<weight id="1877" MUR="1.0" MUF="1.0" PDF="82022" > PDF=82000 MemberID=22 </weight>
<weight id="1878" MUR="1.0" MUF="1.0" PDF="82023" > PDF=82000 MemberID=23 </weight>
<weight id="1879" MUR="1.0" MUF="1.0" PDF="82024" > PDF=82000 MemberID=24 </weight>
<weight id="1880" MUR="1.0" MUF="1.0" PDF="82025" > PDF=82000 MemberID=25 </weight>
<weight id="1881" MUR="1.0" MUF="1.0" PDF="82026" > PDF=82000 MemberID=26 </weight>
<weight id="1882" MUR="1.0" MUF="1.0" PDF="82027" > PDF=82000 MemberID=27 </weight>
<weight id="1883" MUR="1.0" MUF="1.0" PDF="82028" > PDF=82000 MemberID=28 </weight>
<weight id="1884" MUR="1.0" MUF="1.0" PDF="82029" > PDF=82000 MemberID=29 </weight>
<weight id="1885" MUR="1.0" MUF="1.0" PDF="82030" > PDF=82000 MemberID=30 </weight>
<weight id="1886" MUR="1.0" MUF="1.0" PDF="82031" > PDF=82000 MemberID=31 </weight>
<weight id="1887" MUR="1.0" MUF="1.0" PDF="82032" > PDF=82000 MemberID=32 </weight>
<weight id="1888" MUR="1.0" MUF="1.0" PDF="82033" > PDF=82000 MemberID=33 </weight>
<weight id="1889" MUR="1.0" MUF="1.0" PDF="82034" > PDF=82000 MemberID=34 </weight>
<weight id="1890" MUR="1.0" MUF="1.0" PDF="82035" > PDF=82000 MemberID=35 </weight>
<weight id="1891" MUR="1.0" MUF="1.0" PDF="82036" > PDF=82000 MemberID=36 </weight>
<weight id="1892" MUR="1.0" MUF="1.0" PDF="82037" > PDF=82000 MemberID=37 </weight>
<weight id="1893" MUR="1.0" MUF="1.0" PDF="82038" > PDF=82000 MemberID=38 </weight>
<weight id="1894" MUR="1.0" MUF="1.0" PDF="82039" > PDF=82000 MemberID=39 </weight>
<weight id="1895" MUR="1.0" MUF="1.0" PDF="82040" > PDF=82000 MemberID=40 </weight>
<weight id="1896" MUR="1.0" MUF="1.0" PDF="82041" > PDF=82000 MemberID=41 </weight>
<weight id="1897" MUR="1.0" MUF="1.0" PDF="82042" > PDF=82000 MemberID=42 </weight>
<weight id="1898" MUR="1.0" MUF="1.0" PDF="82043" > PDF=82000 MemberID=43 </weight>
<weight id="1899" MUR="1.0" MUF="1.0" PDF="82044" > PDF=82000 MemberID=44 </weight>
<weight id="1900" MUR="1.0" MUF="1.0" PDF="82045" > PDF=82000 MemberID=45 </weight>
<weight id="1901" MUR="1.0" MUF="1.0" PDF="82046" > PDF=82000 MemberID=46 </weight>
<weight id="1902" MUR="1.0" MUF="1.0" PDF="82047" > PDF=82000 MemberID=47 </weight>
<weight id="1903" MUR="1.0" MUF="1.0" PDF="82048" > PDF=82000 MemberID=48 </weight>
<weight id="1904" MUR="1.0" MUF="1.0" PDF="82049" > PDF=82000 MemberID=49 </weight>
<weight id="1905" MUR="1.0" MUF="1.0" PDF="82050" > PDF=82000 MemberID=50 </weight>
<weight id="1906" MUR="1.0" MUF="1.0" PDF="82051" > PDF=82000 MemberID=51 </weight>
<weight id="1907" MUR="1.0" MUF="1.0" PDF="82052" > PDF=82000 MemberID=52 </weight>
<weight id="1908" MUR="1.0" MUF="1.0" PDF="82053" > PDF=82000 MemberID=53 </weight>
<weight id="1909" MUR="1.0" MUF="1.0" PDF="82054" > PDF=82000 MemberID=54 </weight>
<weight id="1910" MUR="1.0" MUF="1.0" PDF="82055" > PDF=82000 MemberID=55 </weight>
<weight id="1911" MUR="1.0" MUF="1.0" PDF="82056" > PDF=82000 MemberID=56 </weight>
<weight id="1912" MUR="1.0" MUF="1.0" PDF="82057" > PDF=82000 MemberID=57 </weight>
<weight id="1913" MUR="1.0" MUF="1.0" PDF="82058" > PDF=82000 MemberID=58 </weight>
<weight id="1914" MUR="1.0" MUF="1.0" PDF="82059" > PDF=82000 MemberID=59 </weight>
<weight id="1915" MUR="1.0" MUF="1.0" PDF="82060" > PDF=82000 MemberID=60 </weight>
<weight id="1916" MUR="1.0" MUF="1.0" PDF="82061" > PDF=82000 MemberID=61 </weight>
<weight id="1917" MUR="1.0" MUF="1.0" PDF="82062" > PDF=82000 MemberID=62 </weight>
<weight id="1918" MUR="1.0" MUF="1.0" PDF="82063" > PDF=82000 MemberID=63 </weight>
<weight id="1919" MUR="1.0" MUF="1.0" PDF="82064" > PDF=82000 MemberID=64 </weight>
<weight id="1920" MUR="1.0" MUF="1.0" PDF="82065" > PDF=82000 MemberID=65 </weight>
<weight id="1921" MUR="1.0" MUF="1.0" PDF="82066" > PDF=82000 MemberID=66 </weight>
<weight id="1922" MUR="1.0" MUF="1.0" PDF="82067" > PDF=82000 MemberID=67 </weight>
<weight id="1923" MUR="1.0" MUF="1.0" PDF="82068" > PDF=82000 MemberID=68 </weight>
<weight id="1924" MUR="1.0" MUF="1.0" PDF="82069" > PDF=82000 MemberID=69 </weight>
<weight id="1925" MUR="1.0" MUF="1.0" PDF="82070" > PDF=82000 MemberID=70 </weight>
<weight id="1926" MUR="1.0" MUF="1.0" PDF="82071" > PDF=82000 MemberID=71 </weight>
<weight id="1927" MUR="1.0" MUF="1.0" PDF="82072" > PDF=82000 MemberID=72 </weight>
<weight id="1928" MUR="1.0" MUF="1.0" PDF="82073" > PDF=82000 MemberID=73 </weight>
<weight id="1929" MUR="1.0" MUF="1.0" PDF="82074" > PDF=82000 MemberID=74 </weight>
<weight id="1930" MUR="1.0" MUF="1.0" PDF="82075" > PDF=82000 MemberID=75 </weight>
<weight id="1931" MUR="1.0" MUF="1.0" PDF="82076" > PDF=82000 MemberID=76 </weight>
<weight id="1932" MUR="1.0" MUF="1.0" PDF="82077" > PDF=82000 MemberID=77 </weight>
<weight id="1933" MUR="1.0" MUF="1.0" PDF="82078" > PDF=82000 MemberID=78 </weight>
<weight id="1934" MUR="1.0" MUF="1.0" PDF="82079" > PDF=82000 MemberID=79 </weight>
<weight id="1935" MUR="1.0" MUF="1.0" PDF="82080" > PDF=82000 MemberID=80 </weight>
<weight id="1936" MUR="1.0" MUF="1.0" PDF="82081" > PDF=82000 MemberID=81 </weight>
<weight id="1937" MUR="1.0" MUF="1.0" PDF="82082" > PDF=82000 MemberID=82 </weight>
<weight id="1938" MUR="1.0" MUF="1.0" PDF="82083" > PDF=82000 MemberID=83 </weight>
<weight id="1939" MUR="1.0" MUF="1.0" PDF="82084" > PDF=82000 MemberID=84 </weight>
<weight id="1940" MUR="1.0" MUF="1.0" PDF="82085" > PDF=82000 MemberID=85 </weight>
<weight id="1941" MUR="1.0" MUF="1.0" PDF="82086" > PDF=82000 MemberID=86 </weight>
<weight id="1942" MUR="1.0" MUF="1.0" PDF="82087" > PDF=82000 MemberID=87 </weight>
<weight id="1943" MUR="1.0" MUF="1.0" PDF="82088" > PDF=82000 MemberID=88 </weight>
<weight id="1944" MUR="1.0" MUF="1.0" PDF="82089" > PDF=82000 MemberID=89 </weight>
<weight id="1945" MUR="1.0" MUF="1.0" PDF="82090" > PDF=82000 MemberID=90 </weight>
<weight id="1946" MUR="1.0" MUF="1.0" PDF="82091" > PDF=82000 MemberID=91 </weight>
<weight id="1947" MUR="1.0" MUF="1.0" PDF="82092" > PDF=82000 MemberID=92 </weight>
<weight id="1948" MUR="1.0" MUF="1.0" PDF="82093" > PDF=82000 MemberID=93 </weight>
<weight id="1949" MUR="1.0" MUF="1.0" PDF="82094" > PDF=82000 MemberID=94 </weight>
<weight id="1950" MUR="1.0" MUF="1.0" PDF="82095" > PDF=82000 MemberID=95 </weight>
<weight id="1951" MUR="1.0" MUF="1.0" PDF="82096" > PDF=82000 MemberID=96 </weight>
<weight id="1952" MUR="1.0" MUF="1.0" PDF="82097" > PDF=82000 MemberID=97 </weight>
<weight id="1953" MUR="1.0" MUF="1.0" PDF="82098" > PDF=82000 MemberID=98 </weight>
<weight id="1954" MUR="1.0" MUF="1.0" PDF="82099" > PDF=82000 MemberID=99 </weight>
<weight id="1955" MUR="1.0" MUF="1.0" PDF="82100" > PDF=82000 MemberID=100 </weight>
<weight id="1956" MUR="1.0" MUF="1.0" PDF="82101" > PDF=82000 MemberID=101 </weight>
<weight id="1957" MUR="1.0" MUF="1.0" PDF="82102" > PDF=82000 MemberID=102 </weight>
<weight id="1958" MUR="1.0" MUF="1.0" PDF="82103" > PDF=82000 MemberID=103 </weight>
<weight id="1959" MUR="1.0" MUF="1.0" PDF="82104" > PDF=82000 MemberID=104 </weight>
<weight id="1960" MUR="1.0" MUF="1.0" PDF="82105" > PDF=82000 MemberID=105 </weight>
<weight id="1961" MUR="1.0" MUF="1.0" PDF="82106" > PDF=82000 MemberID=106 </weight>
<weight id="1962" MUR="1.0" MUF="1.0" PDF="82107" > PDF=82000 MemberID=107 </weight>
</weightgroup>
]]>
</initrwgt>
<scalesfunctionalform>
muR  FxFx merging scale
    muF1 FxFx merging scale
    muF2 FxFx merging scale
    QES  H_T/2 := sum_i mT(i)/2, i=final state
</scalesfunctionalform>
</header>
<init>
2212   2212 0.65000000E+04 0.65000000E+04 -1 -1 292200 292200 -4   2
 0.43797838E+02 0.76295980E-01 0.15146096E+03      0
 0.31841808E+02 0.81112258E-01 0.15146096E+03      1
</init>
<event npLO=" -1 " npNLO=" 0 ">
 6      0 +1.5146096e+02 3.56606450e+01 7.54677110e-03 1.20205200e-01
        5 -1    0    0  501    0 +0.0000000000e+00 +0.0000000000e+00 +3.2154818000e+00 3.2154818000e+00 0.0000000000e+00 0.0000e+00 9.0000e+00
       -5 -1    0    0    0  501 +0.0000000000e+00 +0.0000000000e+00 -5.0706094000e+02 5.0706094000e+02 0.0000000000e+00 0.0000e+00 9.0000e+00
       23  2    1    2    0    0 +0.0000000000e+00 +0.0000000000e+00 -5.0384546000e+02 5.1027642000e+02 8.0757543000e+01 0.0000e+00 0.0000e+00
       13  1    3    3    0    0 -2.3619548000e+01 +1.0927472000e+01 -3.0769931000e+02 3.0879792000e+02 0.0000000000e+00 0.0000e+00 9.0000e+00
      -13  1    3    3    0    0 +8.5076564000e+00 -2.3906993000e+01 -1.2748240000e+02 1.2998341000e+02 0.0000000000e+00 0.0000e+00 9.0000e+00
       22  1    3    3    0    0 +1.5111892000e+01 +1.2979521000e+01 -6.8663751000e+01 7.1495090000e+01 0.0000000000e+00 0.0000e+00 9.0000e+00
#aMCatNLO 1  0  0  2  1 0.19783474E+03 0.00000000E+00 -9  6  0 0.00000000E+00 0.00000000E+00 0.00000000E+00 0.00000000E+00 0.00000000E+00
<rwgt>
<wgt id='1001'> +1.5146000e+02 </wgt>
<wgt id='1002'> +1.5146000e+02 </wgt>
<wgt id='1003'> +1.4517000e+02 </wgt>
<wgt id='1004'> +1.5228000e+02 </wgt>
<wgt id='1005'> +1.5667000e+02 </wgt>
<wgt id='1006'> +1.4500000e+02 </wgt>
<wgt id='1007'> +1.4591000e+02 </wgt>
<wgt id='1008'> +1.5255000e+02 </wgt>
<wgt id='1009'> +1.5040000e+02 </wgt>
<wgt id='1010'> +1.5209000e+02 </wgt>
<wgt id='1011'> +1.5320000e+02 </wgt>
<wgt id='1012'> +1.5534000e+02 </wgt>
<wgt id='1013'> +1.4992000e+02 </wgt>
<wgt id='1014'> +1.5161000e+02 </wgt>
<wgt id='1015'> +1.4887000e+02 </wgt>
<wgt id='1016'> +1.5867000e+02 </wgt>
<wgt id='1017'> +1.5381000e+02 </wgt>
<wgt id='1018'> +1.5196000e+02 </wgt>
<wgt id='1019'> +1.5559000e+02 </wgt>
<wgt id='1020'> +1.5223000e+02 </wgt>
<wgt id='1021'> +1.5052000e+02 </wgt>
<wgt id='1022'> +1.5399000e+02 </wgt>
<wgt id='1023'> +1.5172000e+02 </wgt>
<wgt id='1024'> +1.5108000e+02 </wgt>
<wgt id='1025'> +1.5322000e+02 </wgt>
<wgt id='1026'> +1.5187000e+02 </wgt>
<wgt id='1027'> +1.5023000e+02 </wgt>
<wgt id='1028'> +1.4880000e+02 </wgt>
<wgt id='1029'> +1.5317000e+02 </wgt>
<wgt id='1030'> +1.5429000e+02 </wgt>
<wgt id='1031'> +1.5552000e+02 </wgt>
<wgt id='1032'> +1.5286000e+02 </wgt>
<wgt id='1033'> +1.5075000e+02 </wgt>
<wgt id='1034'> +1.5001000e+02 </wgt>
<wgt id='1035'> +1.4811000e+02 </wgt>
<wgt id='1036'> +1.5057000e+02 </wgt>
<wgt id='1037'> +1.5697000e+02 </wgt>
<wgt id='1038'> +1.4898000e+02 </wgt>
<wgt id='1039'> +1.5454000e+02 </wgt>
<wgt id='1040'> +1.4907000e+02 </wgt>
<wgt id='1041'> +1.4743000e+02 </wgt>
<wgt id='1042'> +1.4977000e+02 </wgt>
<wgt id='1043'> +1.4909000e+02 </wgt>
<wgt id='1044'> +1.4911000e+02 </wgt>
<wgt id='1045'> +1.4902000e+02 </wgt>
<wgt id='1046'> +1.5325000e+02 </wgt>
<wgt id='1047'> +1.5566000e+02 </wgt>
<wgt id='1048'> +1.5103000e+02 </wgt>
<wgt id='1049'> +1.5106000e+02 </wgt>
<wgt id='1050'> +1.5136000e+02 </wgt>
<wgt id='1051'> +1.5252000e+02 </wgt>
<wgt id='1052'> +1.5125000e+02 </wgt>
<wgt id='1053'> +1.5156000e+02 </wgt>
<wgt id='1054'> +1.5124000e+02 </wgt>
<wgt id='1055'> +1.5270000e+02 </wgt>
<wgt id='1056'> +1.4733000e+02 </wgt>
<wgt id='1057'> +1.4991000e+02 </wgt>
<wgt id='1058'> +1.5468000e+02 </wgt>
<wgt id='1059'> +1.4850000e+02 </wgt>
<wgt id='1060'> +1.5249000e+02 </wgt>
<wgt id='1061'> +1.5578000e+02 </wgt>
<wgt id='1062'> +1.5033000e+02 </wgt>
<wgt id='1063'> +1.5029000e+02 </wgt>
<wgt id='1064'> +1.5463000e+02 </wgt>
<wgt id='1065'> +1.4868000e+02 </wgt>
<wgt id='1066'> +1.5418000e+02 </wgt>
<wgt id='1067'> +1.4917000e+02 </wgt>
<wgt id='1068'> +1.5247000e+02 </wgt>
<wgt id='1069'> +1.5616000e+02 </wgt>
<wgt id='1070'> +1.5235000e+02 </wgt>
<wgt id='1071'> +1.4784000e+02 </wgt>
<wgt id='1072'> +1.5059000e+02 </wgt>
<wgt id='1073'> +1.4801000e+02 </wgt>
<wgt id='1074'> +1.5167000e+02 </wgt>
<wgt id='1075'> +1.4647000e+02 </wgt>
<wgt id='1076'> +1.5531000e+02 </wgt>
<wgt id='1077'> +1.5072000e+02 </wgt>
<wgt id='1078'> +1.5068000e+02 </wgt>
<wgt id='1079'> +1.4933000e+02 </wgt>
<wgt id='1080'> +1.4962000e+02 </wgt>
<wgt id='1081'> +1.4893000e+02 </wgt>
<wgt id='1082'> +1.4944000e+02 </wgt>
<wgt id='1083'> +1.5271000e+02 </wgt>
<wgt id='1084'> +1.4882000e+02 </wgt>
<wgt id='1085'> +1.5355000e+02 </wgt>
<wgt id='1086'> +1.5180000e+02 </wgt>
<wgt id='1087'> +1.5342000e+02 </wgt>
<wgt id='1088'> +1.5178000e+02 </wgt>
<wgt id='1089'> +1.5602000e+02 </wgt>
<wgt id='1090'> +1.5117000e+02 </wgt>
<wgt id='1091'> +1.5190000e+02 </wgt>
<wgt id='1092'> +1.5085000e+02 </wgt>
<wgt id='1093'> +1.4985000e+02 </wgt>
<wgt id='1094'> +1.4763000e+02 </wgt>
<wgt id='1095'> +1.5246000e+02 </wgt>
<wgt id='1096'> +1.5451000e+02 </wgt>
<wgt id='1097'> +1.5660000e+02 </wgt>
<wgt id='1098'> +1.4983000e+02 </wgt>
<wgt id='1099'> +1.4975000e+02 </wgt>
<wgt id='1100'> +1.4942000e+02 </wgt>
<wgt id='1101'> +1.5051000e+02 </wgt>
<wgt id='1102'> +1.5332000e+02 </wgt>
<wgt id='1103'> +1.4848000e+02 </wgt>
<wgt id='1104'> +1.5365000e+02 </wgt>
<wgt id='1105'> +1.5146096e+02 </wgt>
<wgt id='1106'> +7.5649691e+01 </wgt>
<wgt id='1107'> +7.5830971e+01 </wgt>
<wgt id='1108'> +9.8459323e+01 </wgt>
<wgt id='1109'> +9.8454371e+01 </wgt>
<wgt id='1110'> +9.8465481e+01 </wgt>
<wgt id='1111'> +5.2776735e+01 </wgt>
<wgt id='1112'> +5.2651628e+01 </wgt>
<wgt id='1113'> +5.2932350e+01 </wgt>
<wgt id='1114'> +6.7689973e+01 </wgt>
<wgt id='1115'> +6.7962632e+01 </wgt>
<wgt id='1116'> +6.7684657e+01 </wgt>
<wgt id='1117'> +6.5327083e+01 </wgt>
<wgt id='1118'> +6.8312216e+01 </wgt>
<wgt id='1119'> +6.7109534e+01 </wgt>
<wgt id='1120'> +6.7829110e+01 </wgt>
<wgt id='1121'> +6.7821391e+01 </wgt>
<wgt id='1122'> +6.7828901e+01 </wgt>
<wgt id='1123'> +6.6566208e+01 </wgt>
<wgt id='1124'> +6.8731722e+01 </wgt>
<wgt id='1125'> +6.7533119e+01 </wgt>
<wgt id='1126'> +6.7563681e+01 </wgt>
<wgt id='1127'> +6.7353166e+01 </wgt>
<wgt id='1128'> +6.8068124e+01 </wgt>
<wgt id='1129'> +6.5681276e+01 </wgt>
<wgt id='1130'> +6.7170219e+01 </wgt>
<wgt id='1131'> +6.7532879e+01 </wgt>
<wgt id='1132'> +6.7575688e+01 </wgt>
<wgt id='1133'> +6.6598638e+01 </wgt>
<wgt id='1134'> +6.6807488e+01 </wgt>
<wgt id='1135'> +6.6223404e+01 </wgt>
<wgt id='1136'> +6.6975747e+01 </wgt>
<wgt id='1137'> +6.7418640e+01 </wgt>
<wgt id='1138'> +6.8358080e+01 </wgt>
<wgt id='1139'> +6.6793551e+01 </wgt>
<wgt id='1140'> +6.6653183e+01 </wgt>
<wgt id='1141'> +6.7565728e+01 </wgt>
<wgt id='1142'> +6.6915696e+01 </wgt>
<wgt id='1143'> +6.7139292e+01 </wgt>
<wgt id='1144'> +6.7757274e+01 </wgt>
<wgt id='1145'> +6.7672723e+01 </wgt>
<wgt id='1146'> +6.7681617e+01 </wgt>
<wgt id='1147'> +6.6557083e+01 </wgt>
<wgt id='1148'> +6.9665160e+01 </wgt>
<wgt id='1149'> +6.5559996e+01 </wgt>
<wgt id='1150'> +6.6848199e+01 </wgt>
<wgt id='1151'> +6.6017598e+01 </wgt>
<wgt id='1152'> +6.7031335e+01 </wgt>
<wgt id='1153'> +6.6805791e+01 </wgt>
<wgt id='1154'> +6.9047737e+01 </wgt>
<wgt id='1155'> +6.7166103e+01 </wgt>
<wgt id='1156'> +7.0004320e+01 </wgt>
<wgt id='1157'> +6.8422666e+01 </wgt>
<wgt id='1158'> +6.8539626e+01 </wgt>
<wgt id='1159'> +6.7951221e+01 </wgt>
<wgt id='1160'> +6.8169975e+01 </wgt>
<wgt id='1161'> +6.8707292e+01 </wgt>
<wgt id='1162'> +7.0448613e+01 </wgt>
<wgt id='1163'> +6.6604903e+01 </wgt>
<wgt id='1164'> +6.7298569e+01 </wgt>
<wgt id='1165'> +6.6936232e+01 </wgt>
<wgt id='1166'> +6.7418718e+01 </wgt>
<wgt id='1167'> +6.7279255e+01 </wgt>
<wgt id='1168'> +6.7295160e+01 </wgt>
<wgt id='1169'> +6.8063907e+01 </wgt>
<wgt id='1170'> +6.7963213e+01 </wgt>
<wgt id='1171'> +6.7633502e+01 </wgt>
<wgt id='1172'> +6.8094757e+01 </wgt>
<wgt id='1173'> +6.5163881e+01 </wgt>
<wgt id='1174'> +6.7260501e+01 </wgt>
<wgt id='1175'> +6.8825687e+01 </wgt>
<wgt id='1176'> +6.7967977e+01 </wgt>
<wgt id='1177'> +6.6730005e+01 </wgt>
<wgt id='1178'> +6.8874375e+01 </wgt>
<wgt id='1179'> +6.6400735e+01 </wgt>
<wgt id='1180'> +6.8189312e+01 </wgt>
<wgt id='1181'> +6.8322371e+01 </wgt>
<wgt id='1182'> +6.7586537e+01 </wgt>
<wgt id='1183'> +6.8430728e+01 </wgt>
<wgt id='1184'> +7.0422779e+01 </wgt>
<wgt id='1185'> +6.6411072e+01 </wgt>
<wgt id='1186'> +6.6120893e+01 </wgt>
<wgt id='1187'> +6.7823859e+01 </wgt>
<wgt id='1188'> +6.6509232e+01 </wgt>
<wgt id='1189'> +6.7865670e+01 </wgt>
<wgt id='1190'> +6.6959618e+01 </wgt>
<wgt id='1191'> +6.9914542e+01 </wgt>
<wgt id='1192'> +6.5835735e+01 </wgt>
<wgt id='1193'> +6.6297156e+01 </wgt>
<wgt id='1194'> +6.9332850e+01 </wgt>
<wgt id='1195'> +6.9785215e+01 </wgt>
<wgt id='1196'> +6.7170219e+01 </wgt>
<wgt id='1197'> +6.8633067e+01 </wgt>
<wgt id='1198'> +6.7302940e+01 </wgt>
<wgt id='1199'> +6.6826810e+01 </wgt>
<wgt id='1200'> +7.0378401e+01 </wgt>
<wgt id='1201'> +6.6770899e+01 </wgt>
<wgt id='1202'> +6.9191523e+01 </wgt>
<wgt id='1203'> +6.9577981e+01 </wgt>
<wgt id='1204'> +6.8475366e+01 </wgt>
<wgt id='1205'> +6.7166075e+01 </wgt>
<wgt id='1206'> +6.7442839e+01 </wgt>
<wgt id='1207'> +6.7827980e+01 </wgt>
<wgt id='1208'> +6.8924502e+01 </wgt>
<wgt id='1209'> +6.9382610e+01 </wgt>
<wgt id='1210'> +6.7152728e+01 </wgt>
<wgt id='1211'> +7.0050692e+01 </wgt>
<wgt id='1212'> +6.8016716e+01 </wgt>
<wgt id='1213'> +6.8207340e+01 </wgt>
<wgt id='1214'> +6.7559339e+01 </wgt>
<wgt id='1215'> +7.7838252e+01 </wgt>
<wgt id='1216'> +6.5783742e+01 </wgt>
<wgt id='1217'> +6.5675932e+01 </wgt>
<wgt id='1218'> +6.5935536e+01 </wgt>
<wgt id='1219'> +6.5414647e+01 </wgt>
<wgt id='1220'> +6.5890840e+01 </wgt>
<wgt id='1221'> +6.5362183e+01 </wgt>
<wgt id='1222'> +6.5595067e+01 </wgt>
<wgt id='1223'> +6.5416369e+01 </wgt>
<wgt id='1224'> +6.5843374e+01 </wgt>
<wgt id='1225'> +6.5529486e+01 </wgt>
<wgt id='1226'> +6.5715827e+01 </wgt>
<wgt id='1227'> +6.5749049e+01 </wgt>
<wgt id='1228'> +6.5722858e+01 </wgt>
<wgt id='1229'> +6.5956443e+01 </wgt>
<wgt id='1230'> +6.5621557e+01 </wgt>
<wgt id='1231'> +6.5688229e+01 </wgt>
<wgt id='1232'> +6.5804120e+01 </wgt>
<wgt id='1233'> +6.5637056e+01 </wgt>
<wgt id='1234'> +6.5759503e+01 </wgt>
<wgt id='1235'> +6.6026940e+01 </wgt>
<wgt id='1236'> +6.6004291e+01 </wgt>
<wgt id='1237'> +6.6026114e+01 </wgt>
<wgt id='1238'> +6.5776718e+01 </wgt>
<wgt id='1239'> +6.5841812e+01 </wgt>
<wgt id='1240'> +6.5875801e+01 </wgt>
<wgt id='1241'> +6.5879190e+01 </wgt>
<wgt id='1242'> +6.5623996e+01 </wgt>
<wgt id='1243'> +6.5841722e+01 </wgt>
<wgt id='1244'> +6.5789460e+01 </wgt>
<wgt id='1245'> +6.5577672e+01 </wgt>
<wgt id='1246'> +6.6264763e+01 </wgt>
<wgt id='1247'> +6.6020385e+01 </wgt>
<wgt id='1248'> +6.5675796e+01 </wgt>
<wgt id='1249'> +6.5788668e+01 </wgt>
<wgt id='1250'> +6.5740097e+01 </wgt>
<wgt id='1251'> +6.5941472e+01 </wgt>
<wgt id='1252'> +6.5889919e+01 </wgt>
<wgt id='1253'> +6.5830266e+01 </wgt>
<wgt id='1254'> +6.5810523e+01 </wgt>
<wgt id='1255'> +6.5933934e+01 </wgt>
<wgt id='1256'> +6.5757922e+01 </wgt>
<wgt id='1257'> +6.5805328e+01 </wgt>
<wgt id='1258'> +6.5640772e+01 </wgt>
<wgt id='1259'> +6.5604696e+01 </wgt>
<wgt id='1260'> +6.5894136e+01 </wgt>
<wgt id='1261'> +6.5873908e+01 </wgt>
<wgt id='1262'> +6.5933180e+01 </wgt>
<wgt id='1263'> +6.5764077e+01 </wgt>
<wgt id='1264'> +6.5827252e+01 </wgt>
<wgt id='1265'> +6.5735009e+01 </wgt>
<wgt id='1266'> +6.5665505e+01 </wgt>
<wgt id='1267'> +6.5959679e+01 </wgt>
<wgt id='1268'> +6.5733859e+01 </wgt>
<wgt id='1269'> +6.5758874e+01 </wgt>
<wgt id='1270'> +6.5798330e+01 </wgt>
<wgt id='1271'> +6.5781085e+01 </wgt>
<wgt id='1272'> +6.5791117e+01 </wgt>
<wgt id='1273'> +6.5785704e+01 </wgt>
<wgt id='1274'> +6.5742784e+01 </wgt>
<wgt id='1275'> +6.5779116e+01 </wgt>
<wgt id='1276'> +6.5820760e+01 </wgt>
<wgt id='1277'> +6.5815114e+01 </wgt>
<wgt id='1278'> +6.5800121e+01 </wgt>
<wgt id='1279'> +6.5791258e+01 </wgt>
<wgt id='1280'> +6.5778120e+01 </wgt>
<wgt id='1281'> +6.5774220e+01 </wgt>
<wgt id='1282'> +6.5810944e+01 </wgt>
<wgt id='1283'> +6.5737848e+01 </wgt>
<wgt id='1284'> +6.5786818e+01 </wgt>
<wgt id='1285'> +6.5738580e+01 </wgt>
<wgt id='1286'> +6.5756589e+01 </wgt>
<wgt id='1287'> +6.5786539e+01 </wgt>
<wgt id='1288'> +6.5799129e+01 </wgt>
<wgt id='1289'> +6.5768727e+01 </wgt>
<wgt id='1290'> +6.5838960e+01 </wgt>
<wgt id='1291'> +6.5803301e+01 </wgt>
<wgt id='1292'> +6.5794388e+01 </wgt>
<wgt id='1293'> +6.5786596e+01 </wgt>
<wgt id='1294'> +6.5813005e+01 </wgt>
<wgt id='1295'> +6.5751830e+01 </wgt>
<wgt id='1296'> +6.5763297e+01 </wgt>
<wgt id='1297'> +6.5767160e+01 </wgt>
<wgt id='1298'> +6.5754713e+01 </wgt>
<wgt id='1299'> +6.5791640e+01 </wgt>
<wgt id='1300'> +6.5758331e+01 </wgt>
<wgt id='1301'> +6.5810357e+01 </wgt>
<wgt id='1302'> +6.5770810e+01 </wgt>
<wgt id='1303'> +6.5756912e+01 </wgt>
<wgt id='1304'> +6.5761822e+01 </wgt>
<wgt id='1305'> +6.5785240e+01 </wgt>
<wgt id='1306'> +6.5781202e+01 </wgt>
<wgt id='1307'> +6.5773094e+01 </wgt>
<wgt id='1308'> +6.5785514e+01 </wgt>
<wgt id='1309'> +6.5796149e+01 </wgt>
<wgt id='1310'> +6.5802520e+01 </wgt>
<wgt id='1311'> +6.5788568e+01 </wgt>
<wgt id='1312'> +6.5768919e+01 </wgt>
<wgt id='1313'> +6.5770670e+01 </wgt>
<wgt id='1314'> +6.5775839e+01 </wgt>
<wgt id='1315'> +6.5793569e+01 </wgt>
<wgt id='1316'> +6.5796537e+01 </wgt>
<wgt id='1317'> +6.3504946e+01 </wgt>
<wgt id='1318'> +6.8136136e+01 </wgt>
<wgt id='1319'> +5.3110439e+01 </wgt>
<wgt id='1320'> +6.7434416e+01 </wgt>
<wgt id='1321'> +6.7347073e+01 </wgt>
<wgt id='1322'> +6.7576755e+01 </wgt>
<wgt id='1323'> +6.5733714e+01 </wgt>
<wgt id='1324'> +6.8430502e+01 </wgt>
<wgt id='1325'> +6.7730141e+01 </wgt>
<wgt id='1326'> +6.7251315e+01 </wgt>
<wgt id='1327'> +6.6374558e+01 </wgt>
<wgt id='1328'> +6.8303771e+01 </wgt>
<wgt id='1329'> +6.7449238e+01 </wgt>
<wgt id='1330'> +6.7666215e+01 </wgt>
<wgt id='1331'> +6.7634207e+01 </wgt>
<wgt id='1332'> +6.7289179e+01 </wgt>
<wgt id='1333'> +6.6825946e+01 </wgt>
<wgt id='1334'> +6.7845180e+01 </wgt>
<wgt id='1335'> +6.8635549e+01 </wgt>
<wgt id='1336'> +6.6703056e+01 </wgt>
<wgt id='1337'> +6.6279292e+01 </wgt>
<wgt id='1338'> +6.8812452e+01 </wgt>
<wgt id='1339'> +6.7239882e+01 </wgt>
<wgt id='1340'> +6.7591510e+01 </wgt>
<wgt id='1341'> +6.7293014e+01 </wgt>
<wgt id='1342'> +6.7678254e+01 </wgt>
<wgt id='1343'> +6.7869648e+01 </wgt>
<wgt id='1344'> +6.6959432e+01 </wgt>
<wgt id='1345'> +6.7557999e+01 </wgt>
<wgt id='1346'> +6.7305409e+01 </wgt>
<wgt id='1347'> +6.7690494e+01 </wgt>
<wgt id='1348'> +6.7061202e+01 </wgt>
<wgt id='1349'> +6.7585390e+01 </wgt>
<wgt id='1350'> +6.7380562e+01 </wgt>
<wgt id='1351'> +6.7474516e+01 </wgt>
<wgt id='1352'> +6.7383804e+01 </wgt>
<wgt id='1353'> +6.7436114e+01 </wgt>
<wgt id='1354'> +6.7448039e+01 </wgt>
<wgt id='1355'> +6.6848788e+01 </wgt>
<wgt id='1356'> +6.7977699e+01 </wgt>
<wgt id='1357'> +6.6913697e+01 </wgt>
<wgt id='1358'> +6.8074384e+01 </wgt>
<wgt id='1359'> +6.6871837e+01 </wgt>
<wgt id='1360'> +6.7845942e+01 </wgt>
<wgt id='1361'> +6.7316201e+01 </wgt>
<wgt id='1362'> +6.7509493e+01 </wgt>
<wgt id='1363'> +6.6121953e+01 </wgt>
<wgt id='1364'> +6.8543098e+01 </wgt>
<wgt id='1365'> +6.8116498e+01 </wgt>
<wgt id='1366'> +6.7305278e+01 </wgt>
<wgt id='1367'> +6.7848025e+01 </wgt>
<wgt id='1368'> +6.6894379e+01 </wgt>
<wgt id='1369'> +6.6904971e+01 </wgt>
<wgt id='1370'> +6.8466566e+01 </wgt>
<wgt id='1371'> +6.7412877e+01 </wgt>
<wgt id='1372'> +6.7404255e+01 </wgt>
<wgt id='1373'> +6.5243976e+01 </wgt>
<wgt id='1374'> +6.6529495e+01 </wgt>
<wgt id='1375'> +6.7385052e+01 </wgt>
<wgt id='1376'> +6.7794996e+01 </wgt>
<wgt id='1377'> +6.4684660e+01 </wgt>
<wgt id='1378'> +7.0408126e+01 </wgt>
<wgt id='1379'> +7.0732295e+01 </wgt>
<wgt id='1380'> +6.7698759e+01 </wgt>
<wgt id='1381'> +7.4032745e+01 </wgt>
<wgt id='1382'> +5.7695446e+01 </wgt>
<wgt id='1383'> +6.7906831e+01 </wgt>
<wgt id='1384'> +6.9962318e+01 </wgt>
<wgt id='1385'> +7.7303148e+01 </wgt>
<wgt id='1386'> +7.7121608e+01 </wgt>
<wgt id='1387'> +7.7510388e+01 </wgt>
<wgt id='1388'> +7.7257999e+01 </wgt>
<wgt id='1389'> +7.7387934e+01 </wgt>
<wgt id='1390'> +7.7312631e+01 </wgt>
<wgt id='1391'> +7.7294897e+01 </wgt>
<wgt id='1392'> +7.7399485e+01 </wgt>
<wgt id='1393'> +7.7229679e+01 </wgt>
<wgt id='1394'> +7.7167866e+01 </wgt>
<wgt id='1395'> +7.7474287e+01 </wgt>
<wgt id='1396'> +7.6932872e+01 </wgt>
<wgt id='1397'> +7.7497784e+01 </wgt>
<wgt id='1398'> +7.7925647e+01 </wgt>
<wgt id='1399'> +7.6839382e+01 </wgt>
<wgt id='1400'> +7.6798918e+01 </wgt>
<wgt id='1401'> +7.7690045e+01 </wgt>
<wgt id='1402'> +7.7211779e+01 </wgt>
<wgt id='1403'> +7.7347232e+01 </wgt>
<wgt id='1404'> +7.8340483e+01 </wgt>
<wgt id='1405'> +7.6798950e+01 </wgt>
<wgt id='1406'> +7.7176189e+01 </wgt>
<wgt id='1407'> +7.7539211e+01 </wgt>
<wgt id='1408'> +7.7331383e+01 </wgt>
<wgt id='1409'> +7.7256173e+01 </wgt>
<wgt id='1410'> +7.7284649e+01 </wgt>
<wgt id='1411'> +7.7301286e+01 </wgt>
<wgt id='1412'> +7.7041904e+01 </wgt>
<wgt id='1413'> +7.7451440e+01 </wgt>
<wgt id='1414'> +7.7575954e+01 </wgt>
<wgt id='1415'> +7.7139203e+01 </wgt>
<wgt id='1416'> +7.7440234e+01 </wgt>
<wgt id='1417'> +7.7222773e+01 </wgt>
<wgt id='1418'> +7.7728918e+01 </wgt>
<wgt id='1419'> +7.6352572e+01 </wgt>
<wgt id='1420'> +7.6937288e+01 </wgt>
<wgt id='1421'> +7.7204759e+01 </wgt>
<wgt id='1422'> +7.7425059e+01 </wgt>
<wgt id='1423'> +7.7156881e+01 </wgt>
<wgt id='1424'> +7.7159639e+01 </wgt>
<wgt id='1425'> +7.7229698e+01 </wgt>
<wgt id='1426'> +7.7478932e+01 </wgt>
<wgt id='1427'> +7.7142330e+01 </wgt>
<wgt id='1428'> +7.7702539e+01 </wgt>
<wgt id='1429'> +7.7046215e+01 </wgt>
<wgt id='1430'> +7.7222206e+01 </wgt>
<wgt id='1431'> +7.7383884e+01 </wgt>
<wgt id='1432'> +7.7208468e+01 </wgt>
<wgt id='1433'> +7.7401497e+01 </wgt>
<wgt id='1434'> +7.7286084e+01 </wgt>
<wgt id='1435'> +7.7287999e+01 </wgt>
<wgt id='1436'> +0.0000000e+00 </wgt>
<wgt id='1437'> +0.0000000e+00 </wgt>
<wgt id='1438'> +0.0000000e+00 </wgt>
<wgt id='1439'> +0.0000000e+00 </wgt>
<wgt id='1440'> +0.0000000e+00 </wgt>
<wgt id='1441'> +0.0000000e+00 </wgt>
<wgt id='1442'> +0.0000000e+00 </wgt>
<wgt id='1443'> +0.0000000e+00 </wgt>
<wgt id='1444'> +0.0000000e+00 </wgt>
<wgt id='1445'> +0.0000000e+00 </wgt>
<wgt id='1446'> +0.0000000e+00 </wgt>
<wgt id='1447'> +0.0000000e+00 </wgt>
<wgt id='1448'> +0.0000000e+00 </wgt>
<wgt id='1449'> +0.0000000e+00 </wgt>
<wgt id='1450'> +0.0000000e+00 </wgt>
<wgt id='1451'> +0.0000000e+00 </wgt>
<wgt id='1452'> +0.0000000e+00 </wgt>
<wgt id='1453'> +0.0000000e+00 </wgt>
<wgt id='1454'> +0.0000000e+00 </wgt>
<wgt id='1455'> +0.0000000e+00 </wgt>
<wgt id='1456'> +0.0000000e+00 </wgt>
<wgt id='1457'> +0.0000000e+00 </wgt>
<wgt id='1458'> +0.0000000e+00 </wgt>
<wgt id='1459'> +0.0000000e+00 </wgt>
<wgt id='1460'> +0.0000000e+00 </wgt>
<wgt id='1461'> +0.0000000e+00 </wgt>
<wgt id='1462'> +0.0000000e+00 </wgt>
<wgt id='1463'> +0.0000000e+00 </wgt>
<wgt id='1464'> +0.0000000e+00 </wgt>
<wgt id='1465'> +7.8251638e+01 </wgt>
<wgt id='1466'> +7.0403725e+01 </wgt>
<wgt id='1467'> +6.9766186e+01 </wgt>
<wgt id='1468'> +7.0092917e+01 </wgt>
<wgt id='1469'> +6.9981757e+01 </wgt>
<wgt id='1470'> +7.0105090e+01 </wgt>
<wgt id='1471'> +7.1319185e+01 </wgt>
<wgt id='1472'> +7.0964159e+01 </wgt>
<wgt id='1473'> +6.9984647e+01 </wgt>
<wgt id='1474'> +6.8415984e+01 </wgt>
<wgt id='1475'> +7.1499205e+01 </wgt>
<wgt id='1476'> +7.2033667e+01 </wgt>
<wgt id='1477'> +7.0314831e+01 </wgt>
<wgt id='1478'> +7.0700745e+01 </wgt>
<wgt id='1479'> +7.0365719e+01 </wgt>
<wgt id='1480'> +6.9065847e+01 </wgt>
<wgt id='1481'> +7.1180695e+01 </wgt>
<wgt id='1482'> +6.9628841e+01 </wgt>
<wgt id='1483'> +7.0210513e+01 </wgt>
<wgt id='1484'> +7.0158138e+01 </wgt>
<wgt id='1485'> +6.9466968e+01 </wgt>
<wgt id='1486'> +6.9743712e+01 </wgt>
<wgt id='1487'> +7.0802897e+01 </wgt>
<wgt id='1488'> +7.1147983e+01 </wgt>
<wgt id='1489'> +7.0039658e+01 </wgt>
<wgt id='1490'> +7.0791479e+01 </wgt>
<wgt id='1491'> +7.1180299e+01 </wgt>
<wgt id='1492'> +7.0655689e+01 </wgt>
<wgt id='1493'> +7.0292723e+01 </wgt>
<wgt id='1494'> +7.0627276e+01 </wgt>
<wgt id='1495'> +7.0442676e+01 </wgt>
<wgt id='1496'> +7.0634987e+01 </wgt>
<wgt id='1497'> +7.0439736e+01 </wgt>
<wgt id='1498'> +7.0293119e+01 </wgt>
<wgt id='1499'> +7.0511521e+01 </wgt>
<wgt id='1500'> +7.0722591e+01 </wgt>
<wgt id='1501'> +7.0303828e+01 </wgt>
<wgt id='1502'> +7.0366051e+01 </wgt>
<wgt id='1503'> +7.0418047e+01 </wgt>
<wgt id='1504'> +7.0498372e+01 </wgt>
<wgt id='1505'> +7.0591793e+01 </wgt>
<wgt id='1506'> +7.0649609e+01 </wgt>
<wgt id='1507'> +7.0505479e+01 </wgt>
<wgt id='1508'> +7.0394103e+01 </wgt>
<wgt id='1509'> +7.0347129e+01 </wgt>
<wgt id='1510'> +7.0655246e+01 </wgt>
<wgt id='1511'> +7.0381856e+01 </wgt>
<wgt id='1512'> +7.0355288e+01 </wgt>
<wgt id='1513'> +7.0329450e+01 </wgt>
<wgt id='1514'> +7.0543088e+01 </wgt>
<wgt id='1515'> +7.0500870e+01 </wgt>
<wgt id='1516'> +7.0152107e+01 </wgt>
<wgt id='1517'> +7.0510036e+01 </wgt>
<wgt id='1518'> +7.0168098e+01 </wgt>
<wgt id='1519'> +7.0174053e+01 </wgt>
<wgt id='1520'> +7.0292554e+01 </wgt>
<wgt id='1521'> +7.0429414e+01 </wgt>
<wgt id='1522'> +7.0325384e+01 </wgt>
<wgt id='1523'> +7.0552842e+01 </wgt>
<wgt id='1524'> +7.0425239e+01 </wgt>
<wgt id='1525'> +7.0533641e+01 </wgt>
<wgt id='1526'> +7.0399903e+01 </wgt>
<wgt id='1527'> +7.0628499e+01 </wgt>
<wgt id='1528'> +7.0539456e+01 </wgt>
<wgt id='1529'> +7.0359974e+01 </wgt>
<wgt id='1530'> +7.0410039e+01 </wgt>
<wgt id='1531'> +7.0515987e+01 </wgt>
<wgt id='1532'> +7.0600924e+01 </wgt>
<wgt id='1533'> +7.0445077e+01 </wgt>
<wgt id='1534'> +7.0486014e+01 </wgt>
<wgt id='1535'> +7.0440773e+01 </wgt>
<wgt id='1536'> +7.0285521e+01 </wgt>
<wgt id='1537'> +7.0307893e+01 </wgt>
<wgt id='1538'> +7.0382571e+01 </wgt>
<wgt id='1539'> +7.0450051e+01 </wgt>
<wgt id='1540'> +7.0149989e+01 </wgt>
<wgt id='1541'> +7.0361486e+01 </wgt>
<wgt id='1542'> +7.0476416e+01 </wgt>
<wgt id='1543'> +7.0278534e+01 </wgt>
<wgt id='1544'> +7.0318535e+01 </wgt>
<wgt id='1545'> +7.0414254e+01 </wgt>
<wgt id='1546'> +7.0387193e+01 </wgt>
<wgt id='1547'> +7.0490690e+01 </wgt>
<wgt id='1548'> +7.0491479e+01 </wgt>
<wgt id='1549'> +7.0311752e+01 </wgt>
<wgt id='1550'> +7.0497587e+01 </wgt>
<wgt id='1551'> +7.0401470e+01 </wgt>
<wgt id='1552'> +7.0507124e+01 </wgt>
<wgt id='1553'> +7.0503529e+01 </wgt>
<wgt id='1554'> +7.0499003e+01 </wgt>
<wgt id='1555'> +7.0378045e+01 </wgt>
<wgt id='1556'> +7.0463424e+01 </wgt>
<wgt id='1557'> +7.0306337e+01 </wgt>
<wgt id='1558'> +7.0380673e+01 </wgt>
<wgt id='1559'> +7.0482301e+01 </wgt>
<wgt id='1560'> +7.0303825e+01 </wgt>
<wgt id='1561'> +7.0330047e+01 </wgt>
<wgt id='1562'> +7.0480465e+01 </wgt>
<wgt id='1563'> +7.0412460e+01 </wgt>
<wgt id='1564'> +7.0375512e+01 </wgt>
<wgt id='1565'> +7.0372223e+01 </wgt>
<wgt id='1566'> +7.0410559e+01 </wgt>
<wgt id='1567'> +6.8527488e+01 </wgt>
<wgt id='1568'> +7.2395158e+01 </wgt>
<wgt id='1569'> +7.2835520e+01 </wgt>
<wgt id='1570'> +7.2069360e+01 </wgt>
<wgt id='1571'> +7.3219061e+01 </wgt>
<wgt id='1572'> +7.2183753e+01 </wgt>
<wgt id='1573'> +7.2573016e+01 </wgt>
<wgt id='1574'> +7.2228672e+01 </wgt>
<wgt id='1575'> +7.3574827e+01 </wgt>
<wgt id='1576'> +7.4554423e+01 </wgt>
<wgt id='1577'> +7.3196922e+01 </wgt>
<wgt id='1578'> +7.2437977e+01 </wgt>
<wgt id='1579'> +7.1931426e+01 </wgt>
<wgt id='1580'> +7.4086981e+01 </wgt>
<wgt id='1581'> +7.3116372e+01 </wgt>
<wgt id='1582'> +7.2445314e+01 </wgt>
<wgt id='1583'> +7.3615813e+01 </wgt>
<wgt id='1584'> +7.2638326e+01 </wgt>
<wgt id='1585'> +7.3982686e+01 </wgt>
<wgt id='1586'> +7.1882832e+01 </wgt>
<wgt id='1587'> +7.2968686e+01 </wgt>
<wgt id='1588'> +7.3589274e+01 </wgt>
<wgt id='1589'> +7.3712664e+01 </wgt>
<wgt id='1590'> +7.2682552e+01 </wgt>
<wgt id='1591'> +7.2633178e+01 </wgt>
<wgt id='1592'> +7.2505693e+01 </wgt>
<wgt id='1593'> +7.2296777e+01 </wgt>
<wgt id='1594'> +7.3013037e+01 </wgt>
<wgt id='1595'> +7.2507446e+01 </wgt>
<wgt id='1596'> +7.3091320e+01 </wgt>
<wgt id='1597'> +7.3040967e+01 </wgt>
<wgt id='1598'> +7.2566309e+01 </wgt>
<wgt id='1599'> +7.2495261e+01 </wgt>
<wgt id='1600'> +7.2989553e+01 </wgt>
<wgt id='1601'> +7.2582332e+01 </wgt>
<wgt id='1602'> +7.2556017e+01 </wgt>
<wgt id='1603'> +7.3044502e+01 </wgt>
<wgt id='1604'> +7.2764825e+01 </wgt>
<wgt id='1605'> +7.2963801e+01 </wgt>
<wgt id='1606'> +7.2688678e+01 </wgt>
<wgt id='1607'> +7.2799791e+01 </wgt>
<wgt id='1608'> +7.2660601e+01 </wgt>
<wgt id='1609'> +7.2745106e+01 </wgt>
<wgt id='1610'> +7.3086942e+01 </wgt>
<wgt id='1611'> +7.3139461e+01 </wgt>
<wgt id='1612'> +7.2695656e+01 </wgt>
<wgt id='1613'> +7.2757979e+01 </wgt>
<wgt id='1614'> +7.3066592e+01 </wgt>
<wgt id='1615'> +7.2830329e+01 </wgt>
<wgt id='1616'> +7.3078387e+01 </wgt>
<wgt id='1617'> +7.2970317e+01 </wgt>
<wgt id='1618'> +7.2964952e+01 </wgt>
<wgt id='1619'> +7.2804054e+01 </wgt>
<wgt id='1620'> +7.2759855e+01 </wgt>
<wgt id='1621'> +7.2949374e+01 </wgt>
<wgt id='1622'> +7.2615280e+01 </wgt>
<wgt id='1623'> +7.2783769e+01 </wgt>
<wgt id='1624'> +7.2833258e+01 </wgt>
<wgt id='1625'> +7.2736293e+01 </wgt>
<wgt id='1626'> +7.2973953e+01 </wgt>
<wgt id='1627'> +7.2680509e+01 </wgt>
<wgt id='1628'> +7.2796934e+01 </wgt>
<wgt id='1629'> +7.2836840e+01 </wgt>
<wgt id='1630'> +7.2822663e+01 </wgt>
<wgt id='1631'> +7.2855560e+01 </wgt>
<wgt id='1632'> +7.2655328e+01 </wgt>
<wgt id='1633'> +7.3053656e+01 </wgt>
<wgt id='1634'> +7.2720236e+01 </wgt>
<wgt id='1635'> +7.2708540e+01 </wgt>
<wgt id='1636'> +7.2792710e+01 </wgt>
<wgt id='1637'> +7.2817143e+01 </wgt>
<wgt id='1638'> +7.2825273e+01 </wgt>
<wgt id='1639'> +7.2811507e+01 </wgt>
<wgt id='1640'> +7.2794274e+01 </wgt>
<wgt id='1641'> +7.2745792e+01 </wgt>
<wgt id='1642'> +7.2891986e+01 </wgt>
<wgt id='1643'> +7.2839617e+01 </wgt>
<wgt id='1644'> +7.2892763e+01 </wgt>
<wgt id='1645'> +7.2814226e+01 </wgt>
<wgt id='1646'> +7.2825103e+01 </wgt>
<wgt id='1647'> +7.2711672e+01 </wgt>
<wgt id='1648'> +7.2834576e+01 </wgt>
<wgt id='1649'> +7.2944395e+01 </wgt>
<wgt id='1650'> +7.2894323e+01 </wgt>
<wgt id='1651'> +7.2843608e+01 </wgt>
<wgt id='1652'> +7.2886676e+01 </wgt>
<wgt id='1653'> +7.2798317e+01 </wgt>
<wgt id='1654'> +7.2737745e+01 </wgt>
<wgt id='1655'> +7.2905863e+01 </wgt>
<wgt id='1656'> +7.2722281e+01 </wgt>
<wgt id='1657'> +7.2766967e+01 </wgt>
<wgt id='1658'> +7.2785377e+01 </wgt>
<wgt id='1659'> +7.2787539e+01 </wgt>
<wgt id='1660'> +7.2736240e+01 </wgt>
<wgt id='1661'> +7.2753951e+01 </wgt>
<wgt id='1662'> +7.2827496e+01 </wgt>
<wgt id='1663'> +7.2730570e+01 </wgt>
<wgt id='1664'> +7.2789663e+01 </wgt>
<wgt id='1665'> +7.2907726e+01 </wgt>
<wgt id='1666'> +7.2857697e+01 </wgt>
<wgt id='1667'> +7.2759157e+01 </wgt>
<wgt id='1668'> +7.2882132e+01 </wgt>
<wgt id='1669'> +7.2874174e+01 </wgt>
<wgt id='1670'> +7.0939444e+01 </wgt>
<wgt id='1671'> +7.4750625e+01 </wgt>
<wgt id='1672'> +7.0366809e+01 </wgt>
<wgt id='1673'> +7.0679380e+01 </wgt>
<wgt id='1674'> +6.8675610e+01 </wgt>
<wgt id='1675'> +7.0295833e+01 </wgt>
<wgt id='1676'> +6.7897566e+01 </wgt>
<wgt id='1677'> +6.9745813e+01 </wgt>
<wgt id='1678'> +6.9511701e+01 </wgt>
<wgt id='1679'> +7.0368528e+01 </wgt>
<wgt id='1680'> +7.0794082e+01 </wgt>
<wgt id='1681'> +7.0083165e+01 </wgt>
<wgt id='1682'> +7.0928907e+01 </wgt>
<wgt id='1683'> +7.0261000e+01 </wgt>
<wgt id='1684'> +7.0510746e+01 </wgt>
<wgt id='1685'> +7.0568072e+01 </wgt>
<wgt id='1686'> +6.9954055e+01 </wgt>
<wgt id='1687'> +7.0337854e+01 </wgt>
<wgt id='1688'> +6.9604750e+01 </wgt>
<wgt id='1689'> +7.0076137e+01 </wgt>
<wgt id='1690'> +7.0852398e+01 </wgt>
<wgt id='1691'> +7.0157959e+01 </wgt>
<wgt id='1692'> +7.0474397e+01 </wgt>
<wgt id='1693'> +7.0169591e+01 </wgt>
<wgt id='1694'> +7.0359369e+01 </wgt>
<wgt id='1695'> +7.0435733e+01 </wgt>
<wgt id='1696'> +6.9933913e+01 </wgt>
<wgt id='1697'> +7.0541253e+01 </wgt>
<wgt id='1698'> +7.0989115e+01 </wgt>
<wgt id='1699'> +7.0817348e+01 </wgt>
<wgt id='1700'> +7.1521297e+01 </wgt>
<wgt id='1701'> +7.0646453e+01 </wgt>
<wgt id='1702'> +7.0340850e+01 </wgt>
<wgt id='1703'> +6.8527488e+01 </wgt>
<wgt id='1704'> +7.2395158e+01 </wgt>
<wgt id='1705'> +7.2799017e+01 </wgt>
<wgt id='1706'> +7.0610972e+01 </wgt>
<wgt id='1707'> +7.2915170e+01 </wgt>
<wgt id='1708'> +7.2499246e+01 </wgt>
<wgt id='1709'> +7.3783624e+01 </wgt>
<wgt id='1710'> +7.2123173e+01 </wgt>
<wgt id='1711'> +7.2565576e+01 </wgt>
<wgt id='1712'> +7.2761562e+01 </wgt>
<wgt id='1713'> +7.1849938e+01 </wgt>
<wgt id='1714'> +7.2522151e+01 </wgt>
<wgt id='1715'> +7.4480460e+01 </wgt>
<wgt id='1716'> +7.3707564e+01 </wgt>
<wgt id='1717'> +7.3010746e+01 </wgt>
<wgt id='1718'> +7.2773747e+01 </wgt>
<wgt id='1719'> +7.2918025e+01 </wgt>
<wgt id='1720'> +7.2413414e+01 </wgt>
<wgt id='1721'> +7.2524821e+01 </wgt>
<wgt id='1722'> +7.2882107e+01 </wgt>
<wgt id='1723'> +7.2426702e+01 </wgt>
<wgt id='1724'> +7.2281955e+01 </wgt>
<wgt id='1725'> +7.3596254e+01 </wgt>
<wgt id='1726'> +7.3059525e+01 </wgt>
<wgt id='1727'> +7.2905739e+01 </wgt>
<wgt id='1728'> +7.2788518e+01 </wgt>
<wgt id='1729'> +7.3644042e+01 </wgt>
<wgt id='1730'> +7.2757015e+01 </wgt>
<wgt id='1731'> +7.3170159e+01 </wgt>
<wgt id='1732'> +7.3121369e+01 </wgt>
<wgt id='1733'> +7.3607446e+01 </wgt>
<wgt id='1734'> +7.2371992e+01 </wgt>
<wgt id='1735'> +7.2762599e+01 </wgt>
<wgt id='1736'> +7.0939444e+01 </wgt>
<wgt id='1737'> +7.4750625e+01 </wgt>
<wgt id='1738'> +6.5275197e+01 </wgt>
<wgt id='1739'> +6.5181209e+01 </wgt>
<wgt id='1740'> +6.5368891e+01 </wgt>
<wgt id='1741'> +6.5472801e+01 </wgt>
<wgt id='1742'> +6.5077886e+01 </wgt>
<wgt id='1743'> +6.5331954e+01 </wgt>
<wgt id='1744'> +6.5218515e+01 </wgt>
<wgt id='1745'> +6.5425564e+01 </wgt>
<wgt id='1746'> +6.5128177e+01 </wgt>
<wgt id='1747'> +6.5287157e+01 </wgt>
<wgt id='1748'> +6.5267167e+01 </wgt>
<wgt id='1749'> +6.4776639e+01 </wgt>
<wgt id='1750'> +6.5756863e+01 </wgt>
<wgt id='1751'> +6.5136945e+01 </wgt>
<wgt id='1752'> +6.5412692e+01 </wgt>
<wgt id='1753'> +6.5637224e+01 </wgt>
<wgt id='1754'> +6.5023252e+01 </wgt>
<wgt id='1755'> +6.5526114e+01 </wgt>
<wgt id='1756'> +6.4980075e+01 </wgt>
<wgt id='1757'> +6.5645069e+01 </wgt>
<wgt id='1758'> +6.4931592e+01 </wgt>
<wgt id='1759'> +6.5422667e+01 </wgt>
<wgt id='1760'> +6.5062565e+01 </wgt>
<wgt id='1761'> +6.4455780e+01 </wgt>
<wgt id='1762'> +6.5834463e+01 </wgt>
<wgt id='1763'> +6.4734069e+01 </wgt>
<wgt id='1764'> +6.5910083e+01 </wgt>
<wgt id='1765'> +6.6295783e+01 </wgt>
<wgt id='1766'> +6.4383335e+01 </wgt>
<wgt id='1767'> +6.5275197e+01 </wgt>
<wgt id='1768'> +6.5444101e+01 </wgt>
<wgt id='1769'> +6.4958229e+01 </wgt>
<wgt id='1770'> +6.5428253e+01 </wgt>
<wgt id='1771'> +6.5068304e+01 </wgt>
<wgt id='1772'> +6.5158250e+01 </wgt>
<wgt id='1773'> +6.6325822e+01 </wgt>
<wgt id='1774'> +6.8294331e+01 </wgt>
<wgt id='1775'> +6.2551799e+01 </wgt>
<wgt id='1776'> +6.5481292e+01 </wgt>
<wgt id='1777'> +6.5117832e+01 </wgt>
<wgt id='1778'> +6.4793691e+01 </wgt>
<wgt id='1779'> +6.5521709e+01 </wgt>
<wgt id='1780'> +6.5726727e+01 </wgt>
<wgt id='1781'> +7.4537601e+01 </wgt>
<wgt id='1782'> +7.4466688e+01 </wgt>
<wgt id='1783'> +7.4587267e+01 </wgt>
<wgt id='1784'> +7.4706152e+01 </wgt>
<wgt id='1785'> +7.4347739e+01 </wgt>
<wgt id='1786'> +7.4700631e+01 </wgt>
<wgt id='1787'> +7.4353932e+01 </wgt>
<wgt id='1788'> +7.4821797e+01 </wgt>
<wgt id='1789'> +7.4235161e+01 </wgt>
<wgt id='1790'> +7.4267074e+01 </wgt>
<wgt id='1791'> +7.4785598e+01 </wgt>
<wgt id='1792'> +7.4836322e+01 </wgt>
<wgt id='1793'> +7.4221313e+01 </wgt>
<wgt id='1794'> +7.4394957e+01 </wgt>
<wgt id='1795'> +7.4664735e+01 </wgt>
<wgt id='1796'> +7.4737747e+01 </wgt>
<wgt id='1797'> +7.4465859e+01 </wgt>
<wgt id='1798'> +7.4418920e+01 </wgt>
<wgt id='1799'> +7.4625487e+01 </wgt>
<wgt id='1800'> +7.4678400e+01 </wgt>
<wgt id='1801'> +7.4377033e+01 </wgt>
<wgt id='1802'> +7.4926135e+01 </wgt>
<wgt id='1803'> +7.4044345e+01 </wgt>
<wgt id='1804'> +7.3751683e+01 </wgt>
<wgt id='1805'> +7.5292749e+01 </wgt>
<wgt id='1806'> +7.3323816e+01 </wgt>
<wgt id='1807'> +7.5528894e+01 </wgt>
<wgt id='1808'> +7.4087703e+01 </wgt>
<wgt id='1809'> +7.5081042e+01 </wgt>
<wgt id='1810'> +7.4537568e+01 </wgt>
<wgt id='1811'> +7.4647566e+01 </wgt>
<wgt id='1812'> +7.3939168e+01 </wgt>
<wgt id='1813'> +7.4598094e+01 </wgt>
<wgt id='1814'> +7.4477931e+01 </wgt>
<wgt id='1815'> +7.2409421e+01 </wgt>
<wgt id='1816'> +7.5257767e+01 </wgt>
<wgt id='1817'> +7.7914810e+01 </wgt>
<wgt id='1818'> +7.1589821e+01 </wgt>
<wgt id='1819'> +7.4561975e+01 </wgt>
<wgt id='1820'> +7.2052254e+01 </wgt>
<wgt id='1821'> +7.4457655e+01 </wgt>
<wgt id='1822'> +7.4978839e+01 </wgt>
<wgt id='1823'> +7.5553006e+01 </wgt>
<wgt id='1824'> +6.6987550e+01 </wgt>
<wgt id='1825'> +6.6979585e+01 </wgt>
<wgt id='1826'> +6.6971750e+01 </wgt>
<wgt id='1827'> +6.6963667e+01 </wgt>
<wgt id='1828'> +6.6955827e+01 </wgt>
<wgt id='1829'> +6.6947970e+01 </wgt>
<wgt id='1830'> +6.6940079e+01 </wgt>
<wgt id='1831'> +6.6932262e+01 </wgt>
<wgt id='1832'> +6.6924124e+01 </wgt>
<wgt id='1833'> +6.6916270e+01 </wgt>
<wgt id='1834'> +6.6908431e+01 </wgt>
<wgt id='1835'> +6.6900566e+01 </wgt>
<wgt id='1836'> +6.6892716e+01 </wgt>
<wgt id='1837'> +6.6884866e+01 </wgt>
<wgt id='1838'> +6.6876826e+01 </wgt>
<wgt id='1839'> +6.6868997e+01 </wgt>
<wgt id='1840'> +6.6861011e+01 </wgt>
<wgt id='1841'> +6.6853180e+01 </wgt>
<wgt id='1842'> +6.6845398e+01 </wgt>
<wgt id='1843'> +6.6837297e+01 </wgt>
<wgt id='1844'> +6.6829442e+01 </wgt>
<wgt id='1845'> +6.6821573e+01 </wgt>
<wgt id='1846'> +6.6813753e+01 </wgt>
<wgt id='1847'> +6.6805841e+01 </wgt>
<wgt id='1848'> +6.6797748e+01 </wgt>
<wgt id='1849'> +6.6789956e+01 </wgt>
<wgt id='1850'> +6.6782310e+01 </wgt>
<wgt id='1851'> +6.6774212e+01 </wgt>
<wgt id='1852'> +6.6766384e+01 </wgt>
<wgt id='1853'> +6.6758322e+01 </wgt>
<wgt id='1854'> +6.6750477e+01 </wgt>
<wgt id='1855'> +7.1932213e+01 </wgt>
<wgt id='1856'> +7.1134727e+01 </wgt>
<wgt id='1857'> +7.2294780e+01 </wgt>
<wgt id='1858'> +7.1297562e+01 </wgt>
<wgt id='1859'> +7.1666212e+01 </wgt>
<wgt id='1860'> +7.1330216e+01 </wgt>
<wgt id='1861'> +7.2698727e+01 </wgt>
<wgt id='1862'> +7.3662010e+01 </wgt>
<wgt id='1863'> +7.2292091e+01 </wgt>
<wgt id='1864'> +7.1544311e+01 </wgt>
<wgt id='1865'> +7.1034442e+01 </wgt>
<wgt id='1866'> +7.3207040e+01 </wgt>
<wgt id='1867'> +7.2230833e+01 </wgt>
<wgt id='1868'> +7.1572628e+01 </wgt>
<wgt id='1869'> +7.2699229e+01 </wgt>
<wgt id='1870'> +7.1673089e+01 </wgt>
<wgt id='1871'> +7.3106857e+01 </wgt>
<wgt id='1872'> +7.0970144e+01 </wgt>
<wgt id='1873'> +7.2055427e+01 </wgt>
<wgt id='1874'> +7.2706072e+01 </wgt>
<wgt id='1875'> +7.2836491e+01 </wgt>
<wgt id='1876'> +7.1763229e+01 </wgt>
<wgt id='1877'> +7.1726289e+01 </wgt>
<wgt id='1878'> +7.1617035e+01 </wgt>
<wgt id='1879'> +7.1379931e+01 </wgt>
<wgt id='1880'> +7.2078712e+01 </wgt>
<wgt id='1881'> +7.1576961e+01 </wgt>
<wgt id='1882'> +7.2219703e+01 </wgt>
<wgt id='1883'> +7.2150241e+01 </wgt>
<wgt id='1884'> +7.1648823e+01 </wgt>
<wgt id='1885'> +7.1580848e+01 </wgt>
<wgt id='1886'> +7.2122172e+01 </wgt>
<wgt id='1887'> +7.1669689e+01 </wgt>
<wgt id='1888'> +7.1645812e+01 </wgt>
<wgt id='1889'> +7.2136672e+01 </wgt>
<wgt id='1890'> +7.1854189e+01 </wgt>
<wgt id='1891'> +7.2061249e+01 </wgt>
<wgt id='1892'> +7.1788782e+01 </wgt>
<wgt id='1893'> +7.1892030e+01 </wgt>
<wgt id='1894'> +7.1746976e+01 </wgt>
<wgt id='1895'> +7.1842539e+01 </wgt>
<wgt id='1896'> +7.2172011e+01 </wgt>
<wgt id='1897'> +7.2227289e+01 </wgt>
<wgt id='1898'> +7.1813459e+01 </wgt>
<wgt id='1899'> +7.1851827e+01 </wgt>
<wgt id='1900'> +7.2156660e+01 </wgt>
<wgt id='1901'> +7.1936753e+01 </wgt>
<wgt id='1902'> +7.2164715e+01 </wgt>
<wgt id='1903'> +7.2071987e+01 </wgt>
<wgt id='1904'> +7.2056477e+01 </wgt>
<wgt id='1905'> +7.1904718e+01 </wgt>
<wgt id='1906'> +7.1854619e+01 </wgt>
<wgt id='1907'> +7.2043561e+01 </wgt>
<wgt id='1908'> +7.1715957e+01 </wgt>
<wgt id='1909'> +7.1885800e+01 </wgt>
<wgt id='1910'> +7.1933748e+01 </wgt>
<wgt id='1911'> +7.1822750e+01 </wgt>
<wgt id='1912'> +7.2069285e+01 </wgt>
<wgt id='1913'> +7.1790316e+01 </wgt>
<wgt id='1914'> +7.1899847e+01 </wgt>
<wgt id='1915'> +7.1939195e+01 </wgt>
<wgt id='1916'> +7.1921018e+01 </wgt>
<wgt id='1917'> +7.1949361e+01 </wgt>
<wgt id='1918'> +7.1749130e+01 </wgt>
<wgt id='1919'> +7.2151910e+01 </wgt>
<wgt id='1920'> +7.1816962e+01 </wgt>
<wgt id='1921'> +7.1804890e+01 </wgt>
<wgt id='1922'> +7.1884667e+01 </wgt>
<wgt id='1923'> +7.1914605e+01 </wgt>
<wgt id='1924'> +7.1916694e+01 </wgt>
<wgt id='1925'> +7.1906371e+01 </wgt>
<wgt id='1926'> +7.1894733e+01 </wgt>
<wgt id='1927'> +7.1840549e+01 </wgt>
<wgt id='1928'> +7.1984655e+01 </wgt>
<wgt id='1929'> +7.1936041e+01 </wgt>
<wgt id='1930'> +7.1989439e+01 </wgt>
<wgt id='1931'> +7.1919068e+01 </wgt>
<wgt id='1932'> +7.1923049e+01 </wgt>
<wgt id='1933'> +7.1815126e+01 </wgt>
<wgt id='1934'> +7.1931197e+01 </wgt>
<wgt id='1935'> +7.2033451e+01 </wgt>
<wgt id='1936'> +7.1997154e+01 </wgt>
<wgt id='1937'> +7.1942333e+01 </wgt>
<wgt id='1938'> +7.1982479e+01 </wgt>
<wgt id='1939'> +7.1892887e+01 </wgt>
<wgt id='1940'> +7.1837904e+01 </wgt>
<wgt id='1941'> +7.2009146e+01 </wgt>
<wgt id='1942'> +7.1817700e+01 </wgt>
<wgt id='1943'> +7.1860911e+01 </wgt>
<wgt id='1944'> +7.1879159e+01 </wgt>
<wgt id='1945'> +7.1882866e+01 </wgt>
<wgt id='1946'> +7.1829877e+01 </wgt>
<wgt id='1947'> +7.1847972e+01 </wgt>
<wgt id='1948'> +7.1925194e+01 </wgt>
<wgt id='1949'> +7.1823125e+01 </wgt>
<wgt id='1950'> +7.1887129e+01 </wgt>
<wgt id='1951'> +7.2005792e+01 </wgt>
<wgt id='1952'> +7.1954265e+01 </wgt>
<wgt id='1953'> +7.1855798e+01 </wgt>
<wgt id='1954'> +7.1981105e+01 </wgt>
<wgt id='1955'> +7.1972246e+01 </wgt>
<wgt id='1956'> +7.1931604e+01 </wgt>
<wgt id='1957'> +7.1935490e+01 </wgt>
<wgt id='1958'> +7.1932844e+01 </wgt>
<wgt id='1959'> +7.1932956e+01 </wgt>
<wgt id='1960'> +7.1934060e+01 </wgt>
<wgt id='1961'> +7.1932479e+01 </wgt>
<wgt id='1962'> +7.1936171e+01 </wgt>
</rwgt>
</event>
<event npLO=" -1 " npNLO=" 0 ">
 6      0 +1.5146096e+02 3.48602910e+01 7.54677110e-03 1.15335480e-01
        2 -1    0    0  501    0 +0.0000000000e+00 +0.0000000000e+00 +2.3651289000e+01 2.3651289000e+01 0.0000000000e+00 0.0000e+00 9.0000e+00
       -2 -1    0    0    0  501 +0.0000000000e+00 +0.0000000000e+00 -8.8880105000e+01 8.8880105000e+01 0.0000000000e+00 0.0000e+00 9.0000e+00
       23  2    1    2    0    0 +3.5527137000e-15 -3.5527137000e-15 -6.5228816000e+01 1.1253139000e+02 9.1697962000e+01 0.0000e+00 0.0000e+00
       11  1    3    3    0    0 -1.9289056000e+01 +2.8877667000e+01 -6.8847009000e+01 7.7109649000e+01 0.0000000000e+00 0.0000e+00 9.0000e+00
      -11  1    3    3    0    0 +1.0705012000e+01 -1.2161224000e+01 +3.7487418000e+00 1.6629664000e+01 0.0000000000e+00 0.0000e+00 9.0000e+00
       22  1    3    3    0    0 +8.5840434000e+00 -1.6716443000e+01 -1.3054884000e-01 1.8792081000e+01 0.0000000000e+00 0.0000e+00 9.0000e+00
#aMCatNLO 1  0  0  1  1 0.87716677E+02 0.00000000E+00 -9  6  0 0.00000000E+00 0.00000000E+00 0.00000000E+00 0.00000000E+00 0.00000000E+00
<rwgt>
<wgt id='1001'> +1.5146000e+02 </wgt>
<wgt id='1002'> +1.5146000e+02 </wgt>
<wgt id='1003'> +1.3812000e+02 </wgt>
<wgt id='1004'> +1.5213000e+02 </wgt>
<wgt id='1005'> +1.6182000e+02 </wgt>
<wgt id='1006'> +1.5548000e+02 </wgt>
<wgt id='1007'> +1.4046000e+02 </wgt>
<wgt id='1008'> +1.5108000e+02 </wgt>
<wgt id='1009'> +1.5472000e+02 </wgt>
<wgt id='1010'> +1.4846000e+02 </wgt>
<wgt id='1011'> +1.5192000e+02 </wgt>
<wgt id='1012'> +1.4538000e+02 </wgt>
<wgt id='1013'> +1.4076000e+02 </wgt>
<wgt id='1014'> +1.5310000e+02 </wgt>
<wgt id='1015'> +1.6019000e+02 </wgt>
<wgt id='1016'> +1.5116000e+02 </wgt>
<wgt id='1017'> +1.5041000e+02 </wgt>
<wgt id='1018'> +1.4943000e+02 </wgt>
<wgt id='1019'> +1.4920000e+02 </wgt>
<wgt id='1020'> +1.4551000e+02 </wgt>
<wgt id='1021'> +1.5056000e+02 </wgt>
<wgt id='1022'> +1.5534000e+02 </wgt>
<wgt id='1023'> +1.5581000e+02 </wgt>
<wgt id='1024'> +1.4885000e+02 </wgt>
<wgt id='1025'> +1.5617000e+02 </wgt>
<wgt id='1026'> +1.6025000e+02 </wgt>
<wgt id='1027'> +1.5439000e+02 </wgt>
<wgt id='1028'> +1.4987000e+02 </wgt>
<wgt id='1029'> +1.5177000e+02 </wgt>
<wgt id='1030'> +1.5320000e+02 </wgt>
<wgt id='1031'> +1.5363000e+02 </wgt>
<wgt id='1032'> +1.5495000e+02 </wgt>
<wgt id='1033'> +1.5927000e+02 </wgt>
<wgt id='1034'> +1.4457000e+02 </wgt>
<wgt id='1035'> +1.5308000e+02 </wgt>
<wgt id='1036'> +1.5248000e+02 </wgt>
<wgt id='1037'> +1.5842000e+02 </wgt>
<wgt id='1038'> +1.5310000e+02 </wgt>
<wgt id='1039'> +1.5267000e+02 </wgt>
<wgt id='1040'> +1.4064000e+02 </wgt>
<wgt id='1041'> +1.4977000e+02 </wgt>
<wgt id='1042'> +1.5419000e+02 </wgt>
<wgt id='1043'> +1.5075000e+02 </wgt>
<wgt id='1044'> +1.5156000e+02 </wgt>
<wgt id='1045'> +1.5358000e+02 </wgt>
<wgt id='1046'> +1.4891000e+02 </wgt>
<wgt id='1047'> +1.5291000e+02 </wgt>
<wgt id='1048'> +1.5080000e+02 </wgt>
<wgt id='1049'> +1.4374000e+02 </wgt>
<wgt id='1050'> +1.5041000e+02 </wgt>
<wgt id='1051'> +1.5482000e+02 </wgt>
<wgt id='1052'> +1.5701000e+02 </wgt>
<wgt id='1053'> +1.5325000e+02 </wgt>
<wgt id='1054'> +1.5281000e+02 </wgt>
<wgt id='1055'> +1.4897000e+02 </wgt>
<wgt id='1056'> +1.5311000e+02 </wgt>
<wgt id='1057'> +1.5335000e+02 </wgt>
<wgt id='1058'> +1.4893000e+02 </wgt>
<wgt id='1059'> +1.5836000e+02 </wgt>
<wgt id='1060'> +1.5371000e+02 </wgt>
<wgt id='1061'> +1.5489000e+02 </wgt>
<wgt id='1062'> +1.5238000e+02 </wgt>
<wgt id='1063'> +1.5161000e+02 </wgt>
<wgt id='1064'> +1.5220000e+02 </wgt>
<wgt id='1065'> +1.5060000e+02 </wgt>
<wgt id='1066'> +1.3926000e+02 </wgt>
<wgt id='1067'> +1.5274000e+02 </wgt>
<wgt id='1068'> +1.5547000e+02 </wgt>
<wgt id='1069'> +1.5107000e+02 </wgt>
<wgt id='1070'> +1.5227000e+02 </wgt>
<wgt id='1071'> +1.4953000e+02 </wgt>
<wgt id='1072'> +1.5159000e+02 </wgt>
<wgt id='1073'> +1.5133000e+02 </wgt>
<wgt id='1074'> +1.4655000e+02 </wgt>
<wgt id='1075'> +1.3555000e+02 </wgt>
<wgt id='1076'> +1.5916000e+02 </wgt>
<wgt id='1077'> +1.5109000e+02 </wgt>
<wgt id='1078'> +1.4474000e+02 </wgt>
<wgt id='1079'> +1.5220000e+02 </wgt>
<wgt id='1080'> +1.4998000e+02 </wgt>
<wgt id='1081'> +1.4639000e+02 </wgt>
<wgt id='1082'> +1.5488000e+02 </wgt>
<wgt id='1083'> +1.5342000e+02 </wgt>
<wgt id='1084'> +1.5602000e+02 </wgt>
<wgt id='1085'> +1.5001000e+02 </wgt>
<wgt id='1086'> +1.5454000e+02 </wgt>
<wgt id='1087'> +1.5292000e+02 </wgt>
<wgt id='1088'> +1.4985000e+02 </wgt>
<wgt id='1089'> +1.5160000e+02 </wgt>
<wgt id='1090'> +1.5341000e+02 </wgt>
<wgt id='1091'> +1.4903000e+02 </wgt>
<wgt id='1092'> +1.5525000e+02 </wgt>
<wgt id='1093'> +1.5233000e+02 </wgt>
<wgt id='1094'> +1.5334000e+02 </wgt>
<wgt id='1095'> +1.5166000e+02 </wgt>
<wgt id='1096'> +1.4721000e+02 </wgt>
<wgt id='1097'> +1.4904000e+02 </wgt>
<wgt id='1098'> +1.4960000e+02 </wgt>
<wgt id='1099'> +1.5198000e+02 </wgt>
<wgt id='1100'> +1.5680000e+02 </wgt>
<wgt id='1101'> +1.5467000e+02 </wgt>
<wgt id='1102'> +1.5135000e+02 </wgt>
<wgt id='1103'> +1.5109000e+02 </wgt>
<wgt id='1104'> +1.5176000e+02 </wgt>
<wgt id='1105'> +1.5146096e+02 </wgt>
<wgt id='1106'> +7.5609664e+01 </wgt>
<wgt id='1107'> +7.5880096e+01 </wgt>
<wgt id='1108'> +8.3619620e+01 </wgt>
<wgt id='1109'> +8.3546862e+01 </wgt>
<wgt id='1110'> +8.3709722e+01 </wgt>
<wgt id='1111'> +6.6924378e+01 </wgt>
<wgt id='1112'> +6.6769820e+01 </wgt>
<wgt id='1113'> +6.7115776e+01 </wgt>
<wgt id='1114'> +8.3618093e+01 </wgt>
<wgt id='1115'> +9.3106120e+01 </wgt>
<wgt id='1116'> +8.3457699e+01 </wgt>
<wgt id='1117'> +8.3515267e+01 </wgt>
<wgt id='1118'> +8.2981092e+01 </wgt>
<wgt id='1119'> +8.1006263e+01 </wgt>
<wgt id='1120'> +8.8237742e+01 </wgt>
<wgt id='1121'> +8.3429929e+01 </wgt>
<wgt id='1122'> +7.9836166e+01 </wgt>
<wgt id='1123'> +7.9422358e+01 </wgt>
<wgt id='1124'> +8.1652871e+01 </wgt>
<wgt id='1125'> +8.4813112e+01 </wgt>
<wgt id='1126'> +7.9862017e+01 </wgt>
<wgt id='1127'> +8.2213479e+01 </wgt>
<wgt id='1128'> +8.5135928e+01 </wgt>
<wgt id='1129'> +8.3600436e+01 </wgt>
<wgt id='1130'> +8.3457089e+01 </wgt>
<wgt id='1131'> +8.5428304e+01 </wgt>
<wgt id='1132'> +8.0794347e+01 </wgt>
<wgt id='1133'> +8.3387019e+01 </wgt>
<wgt id='1134'> +7.8385560e+01 </wgt>
<wgt id='1135'> +8.1544242e+01 </wgt>
<wgt id='1136'> +8.5704840e+01 </wgt>
<wgt id='1137'> +8.4439438e+01 </wgt>
<wgt id='1138'> +7.9800592e+01 </wgt>
<wgt id='1139'> +8.0974888e+01 </wgt>
<wgt id='1140'> +8.6885499e+01 </wgt>
<wgt id='1141'> +8.6795271e+01 </wgt>
<wgt id='1142'> +8.2394339e+01 </wgt>
<wgt id='1143'> +8.3896116e+01 </wgt>
<wgt id='1144'> +8.5870888e+01 </wgt>
<wgt id='1145'> +8.7998748e+01 </wgt>
<wgt id='1146'> +8.2710006e+01 </wgt>
<wgt id='1147'> +8.5943055e+01 </wgt>
<wgt id='1148'> +7.9098980e+01 </wgt>
<wgt id='1149'> +8.5845816e+01 </wgt>
<wgt id='1150'> +8.4386761e+01 </wgt>
<wgt id='1151'> +8.2297639e+01 </wgt>
<wgt id='1152'> +8.2481996e+01 </wgt>
<wgt id='1153'> +8.3623361e+01 </wgt>
<wgt id='1154'> +8.6175838e+01 </wgt>
<wgt id='1155'> +8.4994328e+01 </wgt>
<wgt id='1156'> +8.4819928e+01 </wgt>
<wgt id='1157'> +8.5966798e+01 </wgt>
<wgt id='1158'> +8.6624882e+01 </wgt>
<wgt id='1159'> +8.4984733e+01 </wgt>
<wgt id='1160'> +8.6404450e+01 </wgt>
<wgt id='1161'> +8.5310161e+01 </wgt>
<wgt id='1162'> +8.2891345e+01 </wgt>
<wgt id='1163'> +8.5857028e+01 </wgt>
<wgt id='1164'> +8.3076134e+01 </wgt>
<wgt id='1165'> +8.1890135e+01 </wgt>
<wgt id='1166'> +8.1200743e+01 </wgt>
<wgt id='1167'> +8.3749217e+01 </wgt>
<wgt id='1168'> +8.4586193e+01 </wgt>
<wgt id='1169'> +8.5944005e+01 </wgt>
<wgt id='1170'> +8.3551295e+01 </wgt>
<wgt id='1171'> +8.5028208e+01 </wgt>
<wgt id='1172'> +8.1955274e+01 </wgt>
<wgt id='1173'> +8.4107915e+01 </wgt>
<wgt id='1174'> +8.6017185e+01 </wgt>
<wgt id='1175'> +8.5618629e+01 </wgt>
<wgt id='1176'> +8.1847414e+01 </wgt>
<wgt id='1177'> +8.3970384e+01 </wgt>
<wgt id='1178'> +8.0709789e+01 </wgt>
<wgt id='1179'> +8.5155161e+01 </wgt>
<wgt id='1180'> +8.7418455e+01 </wgt>
<wgt id='1181'> +8.5616155e+01 </wgt>
<wgt id='1182'> +8.5738298e+01 </wgt>
<wgt id='1183'> +8.3832958e+01 </wgt>
<wgt id='1184'> +8.1646481e+01 </wgt>
<wgt id='1185'> +8.1656956e+01 </wgt>
<wgt id='1186'> +8.4417373e+01 </wgt>
<wgt id='1187'> +7.8073484e+01 </wgt>
<wgt id='1188'> +8.0159985e+01 </wgt>
<wgt id='1189'> +8.1790870e+01 </wgt>
<wgt id='1190'> +9.0002392e+01 </wgt>
<wgt id='1191'> +7.9831650e+01 </wgt>
<wgt id='1192'> +8.3218012e+01 </wgt>
<wgt id='1193'> +8.2866166e+01 </wgt>
<wgt id='1194'> +8.6592931e+01 </wgt>
<wgt id='1195'> +8.3178179e+01 </wgt>
<wgt id='1196'> +8.3457089e+01 </wgt>
<wgt id='1197'> +8.5333630e+01 </wgt>
<wgt id='1198'> +8.1531011e+01 </wgt>
<wgt id='1199'> +8.3172232e+01 </wgt>
<wgt id='1200'> +8.6609335e+01 </wgt>
<wgt id='1201'> +7.9323006e+01 </wgt>
<wgt id='1202'> +8.7154777e+01 </wgt>
<wgt id='1203'> +7.7955991e+01 </wgt>
<wgt id='1204'> +8.2281244e+01 </wgt>
<wgt id='1205'> +8.2364220e+01 </wgt>
<wgt id='1206'> +8.0353003e+01 </wgt>
<wgt id='1207'> +8.1906557e+01 </wgt>
<wgt id='1208'> +8.3470150e+01 </wgt>
<wgt id='1209'> +8.1828198e+01 </wgt>
<wgt id='1210'> +8.4519273e+01 </wgt>
<wgt id='1211'> +8.7353178e+01 </wgt>
<wgt id='1212'> +8.4471686e+01 </wgt>
<wgt id='1213'> +8.3427933e+01 </wgt>
<wgt id='1214'> +8.1644162e+01 </wgt>
<wgt id='1215'> +7.9390890e+01 </wgt>
<wgt id='1216'> +8.2846365e+01 </wgt>
<wgt id='1217'> +8.2759577e+01 </wgt>
<wgt id='1218'> +8.2967675e+01 </wgt>
<wgt id='1219'> +8.2813007e+01 </wgt>
<wgt id='1220'> +8.3451597e+01 </wgt>
<wgt id='1221'> +8.2891718e+01 </wgt>
<wgt id='1222'> +8.2543992e+01 </wgt>
<wgt id='1223'> +8.2964201e+01 </wgt>
<wgt id='1224'> +8.2541629e+01 </wgt>
<wgt id='1225'> +8.3038030e+01 </wgt>
<wgt id='1226'> +8.1853491e+01 </wgt>
<wgt id='1227'> +8.2784563e+01 </wgt>
<wgt id='1228'> +8.3178685e+01 </wgt>
<wgt id='1229'> +8.2951573e+01 </wgt>
<wgt id='1230'> +8.3469599e+01 </wgt>
<wgt id='1231'> +8.2014543e+01 </wgt>
<wgt id='1232'> +8.3274512e+01 </wgt>
<wgt id='1233'> +8.2633598e+01 </wgt>
<wgt id='1234'> +8.3244744e+01 </wgt>
<wgt id='1235'> +8.2751716e+01 </wgt>
<wgt id='1236'> +8.2164891e+01 </wgt>
<wgt id='1237'> +8.3599470e+01 </wgt>
<wgt id='1238'> +8.2996547e+01 </wgt>
<wgt id='1239'> +8.2941780e+01 </wgt>
<wgt id='1240'> +8.2988659e+01 </wgt>
<wgt id='1241'> +8.2175495e+01 </wgt>
<wgt id='1242'> +8.2707340e+01 </wgt>
<wgt id='1243'> +8.3224405e+01 </wgt>
<wgt id='1244'> +8.2797186e+01 </wgt>
<wgt id='1245'> +8.3292535e+01 </wgt>
<wgt id='1246'> +8.2434678e+01 </wgt>
<wgt id='1247'> +8.3137733e+01 </wgt>
<wgt id='1248'> +8.2351787e+01 </wgt>
<wgt id='1249'> +8.3269038e+01 </wgt>
<wgt id='1250'> +8.3152189e+01 </wgt>
<wgt id='1251'> +8.2768967e+01 </wgt>
<wgt id='1252'> +8.2762788e+01 </wgt>
<wgt id='1253'> +8.2571755e+01 </wgt>
<wgt id='1254'> +8.2809055e+01 </wgt>
<wgt id='1255'> +8.2655397e+01 </wgt>
<wgt id='1256'> +8.2816791e+01 </wgt>
<wgt id='1257'> +8.2529813e+01 </wgt>
<wgt id='1258'> +8.2821017e+01 </wgt>
<wgt id='1259'> +8.2643025e+01 </wgt>
<wgt id='1260'> +8.2732007e+01 </wgt>
<wgt id='1261'> +8.2989840e+01 </wgt>
<wgt id='1262'> +8.2898126e+01 </wgt>
<wgt id='1263'> +8.2578653e+01 </wgt>
<wgt id='1264'> +8.2635446e+01 </wgt>
<wgt id='1265'> +8.3011735e+01 </wgt>
<wgt id='1266'> +8.2880983e+01 </wgt>
<wgt id='1267'> +8.2952417e+01 </wgt>
<wgt id='1268'> +8.2717698e+01 </wgt>
<wgt id='1269'> +8.2827752e+01 </wgt>
<wgt id='1270'> +8.2625310e+01 </wgt>
<wgt id='1271'> +8.2764369e+01 </wgt>
<wgt id='1272'> +8.2909616e+01 </wgt>
<wgt id='1273'> +8.2824405e+01 </wgt>
<wgt id='1274'> +8.2870081e+01 </wgt>
<wgt id='1275'> +8.2856876e+01 </wgt>
<wgt id='1276'> +8.2819630e+01 </wgt>
<wgt id='1277'> +8.2885175e+01 </wgt>
<wgt id='1278'> +8.2874118e+01 </wgt>
<wgt id='1279'> +8.2959536e+01 </wgt>
<wgt id='1280'> +8.2823379e+01 </wgt>
<wgt id='1281'> +8.2751951e+01 </wgt>
<wgt id='1282'> +8.3045023e+01 </wgt>
<wgt id='1283'> +8.2738657e+01 </wgt>
<wgt id='1284'> +8.2781336e+01 </wgt>
<wgt id='1285'> +8.2963433e+01 </wgt>
<wgt id='1286'> +8.2717833e+01 </wgt>
<wgt id='1287'> +8.2917810e+01 </wgt>
<wgt id='1288'> +8.2863774e+01 </wgt>
<wgt id='1289'> +8.2889093e+01 </wgt>
<wgt id='1290'> +8.2953716e+01 </wgt>
<wgt id='1291'> +8.2689671e+01 </wgt>
<wgt id='1292'> +8.2884675e+01 </wgt>
<wgt id='1293'> +8.2837535e+01 </wgt>
<wgt id='1294'> +8.2852062e+01 </wgt>
<wgt id='1295'> +8.2750174e+01 </wgt>
<wgt id='1296'> +8.2923874e+01 </wgt>
<wgt id='1297'> +8.2909900e+01 </wgt>
<wgt id='1298'> +8.2861839e+01 </wgt>
<wgt id='1299'> +8.2816242e+01 </wgt>
<wgt id='1300'> +8.2792067e+01 </wgt>
<wgt id='1301'> +8.2927853e+01 </wgt>
<wgt id='1302'> +8.2906709e+01 </wgt>
<wgt id='1303'> +8.2772855e+01 </wgt>
<wgt id='1304'> +8.2945361e+01 </wgt>
<wgt id='1305'> +8.2940995e+01 </wgt>
<wgt id='1306'> +8.2864506e+01 </wgt>
<wgt id='1307'> +8.2758983e+01 </wgt>
<wgt id='1308'> +8.2797379e+01 </wgt>
<wgt id='1309'> +8.2842956e+01 </wgt>
<wgt id='1310'> +8.2837719e+01 </wgt>
<wgt id='1311'> +8.2787112e+01 </wgt>
<wgt id='1312'> +8.2890475e+01 </wgt>
<wgt id='1313'> +8.2885991e+01 </wgt>
<wgt id='1314'> +8.2822643e+01 </wgt>
<wgt id='1315'> +8.2858896e+01 </wgt>
<wgt id='1316'> +8.2784431e+01 </wgt>
<wgt id='1317'> +8.2806596e+01 </wgt>
<wgt id='1318'> +8.3180986e+01 </wgt>
<wgt id='1319'> +9.5789038e+01 </wgt>
<wgt id='1320'> +7.8391687e+01 </wgt>
<wgt id='1321'> +7.8720419e+01 </wgt>
<wgt id='1322'> +7.9071435e+01 </wgt>
<wgt id='1323'> +7.8748990e+01 </wgt>
<wgt id='1324'> +7.8899946e+01 </wgt>
<wgt id='1325'> +7.8711795e+01 </wgt>
<wgt id='1326'> +7.8319963e+01 </wgt>
<wgt id='1327'> +7.8923130e+01 </wgt>
<wgt id='1328'> +8.0298820e+01 </wgt>
<wgt id='1329'> +7.6957791e+01 </wgt>
<wgt id='1330'> +7.9585051e+01 </wgt>
<wgt id='1331'> +7.7731004e+01 </wgt>
<wgt id='1332'> +7.9018827e+01 </wgt>
<wgt id='1333'> +7.6499289e+01 </wgt>
<wgt id='1334'> +7.8805425e+01 </wgt>
<wgt id='1335'> +8.0694291e+01 </wgt>
<wgt id='1336'> +7.5518427e+01 </wgt>
<wgt id='1337'> +8.0607218e+01 </wgt>
<wgt id='1338'> +7.5900384e+01 </wgt>
<wgt id='1339'> +7.8944875e+01 </wgt>
<wgt id='1340'> +7.7665885e+01 </wgt>
<wgt id='1341'> +7.8775162e+01 </wgt>
<wgt id='1342'> +7.7494852e+01 </wgt>
<wgt id='1343'> +7.8730517e+01 </wgt>
<wgt id='1344'> +7.7852983e+01 </wgt>
<wgt id='1345'> +7.8908023e+01 </wgt>
<wgt id='1346'> +7.8053786e+01 </wgt>
<wgt id='1347'> +7.8688156e+01 </wgt>
<wgt id='1348'> +7.7920940e+01 </wgt>
<wgt id='1349'> +7.7691319e+01 </wgt>
<wgt id='1350'> +7.8625905e+01 </wgt>
<wgt id='1351'> +7.7859192e+01 </wgt>
<wgt id='1352'> +7.9064739e+01 </wgt>
<wgt id='1353'> +7.8817827e+01 </wgt>
<wgt id='1354'> +7.7439576e+01 </wgt>
<wgt id='1355'> +7.7704877e+01 </wgt>
<wgt id='1356'> +7.9221400e+01 </wgt>
<wgt id='1357'> +7.8749993e+01 </wgt>
<wgt id='1358'> +7.7262170e+01 </wgt>
<wgt id='1359'> +7.7023455e+01 </wgt>
<wgt id='1360'> +7.8745182e+01 </wgt>
<wgt id='1361'> +7.9337453e+01 </wgt>
<wgt id='1362'> +7.7512331e+01 </wgt>
<wgt id='1363'> +7.8962271e+01 </wgt>
<wgt id='1364'> +7.7504115e+01 </wgt>
<wgt id='1365'> +7.7628913e+01 </wgt>
<wgt id='1366'> +7.7727437e+01 </wgt>
<wgt id='1367'> +7.7350391e+01 </wgt>
<wgt id='1368'> +7.8414256e+01 </wgt>
<wgt id='1369'> +7.7814321e+01 </wgt>
<wgt id='1370'> +7.8213356e+01 </wgt>
<wgt id='1371'> +7.6973483e+01 </wgt>
<wgt id='1372'> +7.6963462e+01 </wgt>
<wgt id='1373'> +7.7923165e+01 </wgt>
<wgt id='1374'> +7.7715704e+01 </wgt>
<wgt id='1375'> +7.6368896e+01 </wgt>
<wgt id='1376'> +8.1009651e+01 </wgt>
<wgt id='1377'> +7.7915311e+01 </wgt>
<wgt id='1378'> +7.8808675e+01 </wgt>
<wgt id='1379'> +8.1731123e+01 </wgt>
<wgt id='1380'> +8.1028592e+01 </wgt>
<wgt id='1381'> +8.2543760e+01 </wgt>
<wgt id='1382'> +6.8939668e+01 </wgt>
<wgt id='1383'> +7.5943075e+01 </wgt>
<wgt id='1384'> +8.0822567e+01 </wgt>
<wgt id='1385'> +6.7106001e+01 </wgt>
<wgt id='1386'> +6.7403574e+01 </wgt>
<wgt id='1387'> +6.6775912e+01 </wgt>
<wgt id='1388'> +6.6753984e+01 </wgt>
<wgt id='1389'> +6.7707865e+01 </wgt>
<wgt id='1390'> +6.7594803e+01 </wgt>
<wgt id='1391'> +6.6530885e+01 </wgt>
<wgt id='1392'> +6.6987084e+01 </wgt>
<wgt id='1393'> +6.7192027e+01 </wgt>
<wgt id='1394'> +6.7051859e+01 </wgt>
<wgt id='1395'> +6.7170838e+01 </wgt>
<wgt id='1396'> +6.6962921e+01 </wgt>
<wgt id='1397'> +6.7172951e+01 </wgt>
<wgt id='1398'> +6.6968748e+01 </wgt>
<wgt id='1399'> +6.7195684e+01 </wgt>
<wgt id='1400'> +6.7398110e+01 </wgt>
<wgt id='1401'> +6.6869920e+01 </wgt>
<wgt id='1402'> +6.7466964e+01 </wgt>
<wgt id='1403'> +6.6942521e+01 </wgt>
<wgt id='1404'> +6.6869579e+01 </wgt>
<wgt id='1405'> +6.7227226e+01 </wgt>
<wgt id='1406'> +6.6726549e+01 </wgt>
<wgt id='1407'> +6.7774339e+01 </wgt>
<wgt id='1408'> +6.6561293e+01 </wgt>
<wgt id='1409'> +6.8209316e+01 </wgt>
<wgt id='1410'> +6.7356845e+01 </wgt>
<wgt id='1411'> +6.6442530e+01 </wgt>
<wgt id='1412'> +6.7693525e+01 </wgt>
<wgt id='1413'> +6.6277750e+01 </wgt>
<wgt id='1414'> +6.6929486e+01 </wgt>
<wgt id='1415'> +6.7244872e+01 </wgt>
<wgt id='1416'> +6.7150844e+01 </wgt>
<wgt id='1417'> +6.7112548e+01 </wgt>
<wgt id='1418'> +6.7059379e+01 </wgt>
<wgt id='1419'> +6.7193408e+01 </wgt>
<wgt id='1420'> +6.6984494e+01 </wgt>
<wgt id='1421'> +6.6920119e+01 </wgt>
<wgt id='1422'> +6.7184605e+01 </wgt>
<wgt id='1423'> +6.7056746e+01 </wgt>
<wgt id='1424'> +6.7332231e+01 </wgt>
<wgt id='1425'> +6.6573291e+01 </wgt>
<wgt id='1426'> +6.7910084e+01 </wgt>
<wgt id='1427'> +6.7485820e+01 </wgt>
<wgt id='1428'> +6.6845966e+01 </wgt>
<wgt id='1429'> +6.6334777e+01 </wgt>
<wgt id='1430'> +6.7851893e+01 </wgt>
<wgt id='1431'> +6.7788652e+01 </wgt>
<wgt id='1432'> +6.7754580e+01 </wgt>
<wgt id='1433'> +6.8121916e+01 </wgt>
<wgt id='1434'> +6.6992067e+01 </wgt>
<wgt id='1435'> +6.7293574e+01 </wgt>
<wgt id='1436'> +8.3677963e+01 </wgt>
<wgt id='1437'> +8.3843441e+01 </wgt>
<wgt id='1438'> +8.3333354e+01 </wgt>
<wgt id='1439'> +8.3680622e+01 </wgt>
<wgt id='1440'> +8.3647040e+01 </wgt>
<wgt id='1441'> +8.4107085e+01 </wgt>
<wgt id='1442'> +8.3639286e+01 </wgt>
<wgt id='1443'> +8.4006617e+01 </wgt>
<wgt id='1444'> +8.3439009e+01 </wgt>
<wgt id='1445'> +8.3408968e+01 </wgt>
<wgt id='1446'> +8.3774232e+01 </wgt>
<wgt id='1447'> +8.3775791e+01 </wgt>
<wgt id='1448'> +8.3398496e+01 </wgt>
<wgt id='1449'> +8.3963824e+01 </wgt>
<wgt id='1450'> +8.3723664e+01 </wgt>
<wgt id='1451'> +8.3629856e+01 </wgt>
<wgt id='1452'> +8.3642938e+01 </wgt>
<wgt id='1453'> +8.3509799e+01 </wgt>
<wgt id='1454'> +8.3733818e+01 </wgt>
<wgt id='1455'> +8.3652507e+01 </wgt>
<wgt id='1456'> +8.3543609e+01 </wgt>
<wgt id='1457'> +8.3854721e+01 </wgt>
<wgt id='1458'> +8.3311085e+01 </wgt>
<wgt id='1459'> +8.3848098e+01 </wgt>
<wgt id='1460'> +8.3660965e+01 </wgt>
<wgt id='1461'> +8.3795465e+01 </wgt>
<wgt id='1462'> +8.3945746e+01 </wgt>
<wgt id='1463'> +8.3340832e+01 </wgt>
<wgt id='1464'> +8.3821023e+01 </wgt>
<wgt id='1465'> +8.2262759e+01 </wgt>
<wgt id='1466'> +7.6686372e+01 </wgt>
<wgt id='1467'> +7.6501825e+01 </wgt>
<wgt id='1468'> +7.6145104e+01 </wgt>
<wgt id='1469'> +7.8239009e+01 </wgt>
<wgt id='1470'> +7.6391987e+01 </wgt>
<wgt id='1471'> +7.6742393e+01 </wgt>
<wgt id='1472'> +7.5704951e+01 </wgt>
<wgt id='1473'> +7.7318309e+01 </wgt>
<wgt id='1474'> +7.7140535e+01 </wgt>
<wgt id='1475'> +7.6362819e+01 </wgt>
<wgt id='1476'> +7.6610062e+01 </wgt>
<wgt id='1477'> +7.5644462e+01 </wgt>
<wgt id='1478'> +7.6387904e+01 </wgt>
<wgt id='1479'> +7.7149062e+01 </wgt>
<wgt id='1480'> +7.6449629e+01 </wgt>
<wgt id='1481'> +7.6517522e+01 </wgt>
<wgt id='1482'> +7.6196948e+01 </wgt>
<wgt id='1483'> +7.6907053e+01 </wgt>
<wgt id='1484'> +7.7561244e+01 </wgt>
<wgt id='1485'> +7.6173002e+01 </wgt>
<wgt id='1486'> +7.6851675e+01 </wgt>
<wgt id='1487'> +7.6350581e+01 </wgt>
<wgt id='1488'> +7.6248206e+01 </wgt>
<wgt id='1489'> +7.6989411e+01 </wgt>
<wgt id='1490'> +7.6741543e+01 </wgt>
<wgt id='1491'> +7.6687330e+01 </wgt>
<wgt id='1492'> +7.6596196e+01 </wgt>
<wgt id='1493'> +7.6843546e+01 </wgt>
<wgt id='1494'> +7.6444821e+01 </wgt>
<wgt id='1495'> +7.6755154e+01 </wgt>
<wgt id='1496'> +7.7003726e+01 </wgt>
<wgt id='1497'> +7.6624358e+01 </wgt>
<wgt id='1498'> +7.6285244e+01 </wgt>
<wgt id='1499'> +7.6715261e+01 </wgt>
<wgt id='1500'> +7.7169325e+01 </wgt>
<wgt id='1501'> +7.7036674e+01 </wgt>
<wgt id='1502'> +7.6401980e+01 </wgt>
<wgt id='1503'> +7.6747905e+01 </wgt>
<wgt id='1504'> +7.6619897e+01 </wgt>
<wgt id='1505'> +7.6848589e+01 </wgt>
<wgt id='1506'> +7.6595938e+01 </wgt>
<wgt id='1507'> +7.6708664e+01 </wgt>
<wgt id='1508'> +7.6628822e+01 </wgt>
<wgt id='1509'> +7.6599932e+01 </wgt>
<wgt id='1510'> +7.6698883e+01 </wgt>
<wgt id='1511'> +7.6893717e+01 </wgt>
<wgt id='1512'> +7.6953151e+01 </wgt>
<wgt id='1513'> +7.6711584e+01 </wgt>
<wgt id='1514'> +7.6688651e+01 </wgt>
<wgt id='1515'> +7.6762880e+01 </wgt>
<wgt id='1516'> +7.6774652e+01 </wgt>
<wgt id='1517'> +7.6588936e+01 </wgt>
<wgt id='1518'> +7.6823855e+01 </wgt>
<wgt id='1519'> +7.6545137e+01 </wgt>
<wgt id='1520'> +7.6626147e+01 </wgt>
<wgt id='1521'> +7.6800017e+01 </wgt>
<wgt id='1522'> +7.6624178e+01 </wgt>
<wgt id='1523'> +7.6525523e+01 </wgt>
<wgt id='1524'> +7.6757857e+01 </wgt>
<wgt id='1525'> +7.6752645e+01 </wgt>
<wgt id='1526'> +7.6683895e+01 </wgt>
<wgt id='1527'> +7.6794801e+01 </wgt>
<wgt id='1528'> +7.6585397e+01 </wgt>
<wgt id='1529'> +7.6594184e+01 </wgt>
<wgt id='1530'> +7.6718151e+01 </wgt>
<wgt id='1531'> +7.6648533e+01 </wgt>
<wgt id='1532'> +7.6568217e+01 </wgt>
<wgt id='1533'> +7.6651729e+01 </wgt>
<wgt id='1534'> +7.6693496e+01 </wgt>
<wgt id='1535'> +7.6708438e+01 </wgt>
<wgt id='1536'> +7.6742791e+01 </wgt>
<wgt id='1537'> +7.6640873e+01 </wgt>
<wgt id='1538'> +7.6622425e+01 </wgt>
<wgt id='1539'> +7.6669035e+01 </wgt>
<wgt id='1540'> +7.6696949e+01 </wgt>
<wgt id='1541'> +7.6632015e+01 </wgt>
<wgt id='1542'> +7.6673262e+01 </wgt>
<wgt id='1543'> +7.6645909e+01 </wgt>
<wgt id='1544'> +7.6695112e+01 </wgt>
<wgt id='1545'> +7.6694449e+01 </wgt>
<wgt id='1546'> +7.6660400e+01 </wgt>
<wgt id='1547'> +7.6674983e+01 </wgt>
<wgt id='1548'> +7.6694989e+01 </wgt>
<wgt id='1549'> +7.6688736e+01 </wgt>
<wgt id='1550'> +7.6706766e+01 </wgt>
<wgt id='1551'> +7.6661561e+01 </wgt>
<wgt id='1552'> +7.6705861e+01 </wgt>
<wgt id='1553'> +7.6665648e+01 </wgt>
<wgt id='1554'> +7.6673970e+01 </wgt>
<wgt id='1555'> +7.6685102e+01 </wgt>
<wgt id='1556'> +7.6709228e+01 </wgt>
<wgt id='1557'> +7.6687837e+01 </wgt>
<wgt id='1558'> +7.6685801e+01 </wgt>
<wgt id='1559'> +7.6671498e+01 </wgt>
<wgt id='1560'> +7.6705453e+01 </wgt>
<wgt id='1561'> +7.6717957e+01 </wgt>
<wgt id='1562'> +7.6714116e+01 </wgt>
<wgt id='1563'> +7.6668039e+01 </wgt>
<wgt id='1564'> +7.6691682e+01 </wgt>
<wgt id='1565'> +7.6674873e+01 </wgt>
<wgt id='1566'> +7.6681573e+01 </wgt>
<wgt id='1567'> +7.6126105e+01 </wgt>
<wgt id='1568'> +7.7044764e+01 </wgt>
<wgt id='1569'> +8.0641451e+01 </wgt>
<wgt id='1570'> +8.0933800e+01 </wgt>
<wgt id='1571'> +8.0257552e+01 </wgt>
<wgt id='1572'> +8.1162352e+01 </wgt>
<wgt id='1573'> +8.1584438e+01 </wgt>
<wgt id='1574'> +8.1699553e+01 </wgt>
<wgt id='1575'> +8.1216971e+01 </wgt>
<wgt id='1576'> +8.0722218e+01 </wgt>
<wgt id='1577'> +8.0631073e+01 </wgt>
<wgt id='1578'> +8.0798729e+01 </wgt>
<wgt id='1579'> +8.0545961e+01 </wgt>
<wgt id='1580'> +8.1743623e+01 </wgt>
<wgt id='1581'> +8.0559203e+01 </wgt>
<wgt id='1582'> +8.1071771e+01 </wgt>
<wgt id='1583'> +8.0018266e+01 </wgt>
<wgt id='1584'> +8.0843382e+01 </wgt>
<wgt id='1585'> +8.0426751e+01 </wgt>
<wgt id='1586'> +8.0585866e+01 </wgt>
<wgt id='1587'> +8.1276226e+01 </wgt>
<wgt id='1588'> +7.9402448e+01 </wgt>
<wgt id='1589'> +8.0688579e+01 </wgt>
<wgt id='1590'> +8.0791772e+01 </wgt>
<wgt id='1591'> +8.0221973e+01 </wgt>
<wgt id='1592'> +8.0755904e+01 </wgt>
<wgt id='1593'> +8.0950087e+01 </wgt>
<wgt id='1594'> +8.0770661e+01 </wgt>
<wgt id='1595'> +8.0562219e+01 </wgt>
<wgt id='1596'> +8.0567347e+01 </wgt>
<wgt id='1597'> +8.0846369e+01 </wgt>
<wgt id='1598'> +8.0896447e+01 </wgt>
<wgt id='1599'> +8.0666834e+01 </wgt>
<wgt id='1600'> +8.0837137e+01 </wgt>
<wgt id='1601'> +8.0677068e+01 </wgt>
<wgt id='1602'> +8.0625716e+01 </wgt>
<wgt id='1603'> +8.0644579e+01 </wgt>
<wgt id='1604'> +8.0798808e+01 </wgt>
<wgt id='1605'> +8.1276702e+01 </wgt>
<wgt id='1606'> +8.0714968e+01 </wgt>
<wgt id='1607'> +8.0391074e+01 </wgt>
<wgt id='1608'> +8.0932234e+01 </wgt>
<wgt id='1609'> +8.0196067e+01 </wgt>
<wgt id='1610'> +8.0375594e+01 </wgt>
<wgt id='1611'> +8.0625698e+01 </wgt>
<wgt id='1612'> +8.0666603e+01 </wgt>
<wgt id='1613'> +8.0657178e+01 </wgt>
<wgt id='1614'> +8.0578444e+01 </wgt>
<wgt id='1615'> +8.0318797e+01 </wgt>
<wgt id='1616'> +8.0371155e+01 </wgt>
<wgt id='1617'> +8.0482052e+01 </wgt>
<wgt id='1618'> +8.0531375e+01 </wgt>
<wgt id='1619'> +8.0508254e+01 </wgt>
<wgt id='1620'> +8.0599343e+01 </wgt>
<wgt id='1621'> +8.0734835e+01 </wgt>
<wgt id='1622'> +8.0590489e+01 </wgt>
<wgt id='1623'> +8.0556975e+01 </wgt>
<wgt id='1624'> +8.0541166e+01 </wgt>
<wgt id='1625'> +8.0807851e+01 </wgt>
<wgt id='1626'> +8.0640817e+01 </wgt>
<wgt id='1627'> +8.0568741e+01 </wgt>
<wgt id='1628'> +8.0621195e+01 </wgt>
<wgt id='1629'> +8.0643308e+01 </wgt>
<wgt id='1630'> +8.0687897e+01 </wgt>
<wgt id='1631'> +8.0686815e+01 </wgt>
<wgt id='1632'> +8.0566032e+01 </wgt>
<wgt id='1633'> +8.0591680e+01 </wgt>
<wgt id='1634'> +8.0727669e+01 </wgt>
<wgt id='1635'> +8.0651303e+01 </wgt>
<wgt id='1636'> +8.0661413e+01 </wgt>
<wgt id='1637'> +8.0585120e+01 </wgt>
<wgt id='1638'> +8.0737323e+01 </wgt>
<wgt id='1639'> +8.0717891e+01 </wgt>
<wgt id='1640'> +8.0655939e+01 </wgt>
<wgt id='1641'> +8.0669771e+01 </wgt>
<wgt id='1642'> +8.0649016e+01 </wgt>
<wgt id='1643'> +8.0650201e+01 </wgt>
<wgt id='1644'> +8.0628307e+01 </wgt>
<wgt id='1645'> +8.0587202e+01 </wgt>
<wgt id='1646'> +8.0639899e+01 </wgt>
<wgt id='1647'> +8.0667224e+01 </wgt>
<wgt id='1648'> +8.0654065e+01 </wgt>
<wgt id='1649'> +8.0633840e+01 </wgt>
<wgt id='1650'> +8.0607755e+01 </wgt>
<wgt id='1651'> +8.0612859e+01 </wgt>
<wgt id='1652'> +8.0613058e+01 </wgt>
<wgt id='1653'> +8.0659902e+01 </wgt>
<wgt id='1654'> +8.0620045e+01 </wgt>
<wgt id='1655'> +8.0629494e+01 </wgt>
<wgt id='1656'> +8.0613667e+01 </wgt>
<wgt id='1657'> +8.0657177e+01 </wgt>
<wgt id='1658'> +8.0618184e+01 </wgt>
<wgt id='1659'> +8.0677509e+01 </wgt>
<wgt id='1660'> +8.0636928e+01 </wgt>
<wgt id='1661'> +8.0662296e+01 </wgt>
<wgt id='1662'> +8.0608623e+01 </wgt>
<wgt id='1663'> +8.0659065e+01 </wgt>
<wgt id='1664'> +8.0676006e+01 </wgt>
<wgt id='1665'> +8.0618766e+01 </wgt>
<wgt id='1666'> +8.0626797e+01 </wgt>
<wgt id='1667'> +8.0624107e+01 </wgt>
<wgt id='1668'> +8.0643618e+01 </wgt>
<wgt id='1669'> +8.0648515e+01 </wgt>
<wgt id='1670'> +8.0234299e+01 </wgt>
<wgt id='1671'> +8.1222433e+01 </wgt>
<wgt id='1672'> +7.6686210e+01 </wgt>
<wgt id='1673'> +7.6699982e+01 </wgt>
<wgt id='1674'> +7.5362043e+01 </wgt>
<wgt id='1675'> +7.6644948e+01 </wgt>
<wgt id='1676'> +7.8345001e+01 </wgt>
<wgt id='1677'> +7.7198174e+01 </wgt>
<wgt id='1678'> +7.6596807e+01 </wgt>
<wgt id='1679'> +7.6763982e+01 </wgt>
<wgt id='1680'> +7.6757355e+01 </wgt>
<wgt id='1681'> +7.7229584e+01 </wgt>
<wgt id='1682'> +7.6644384e+01 </wgt>
<wgt id='1683'> +7.5804800e+01 </wgt>
<wgt id='1684'> +7.6750874e+01 </wgt>
<wgt id='1685'> +7.6589699e+01 </wgt>
<wgt id='1686'> +7.6088544e+01 </wgt>
<wgt id='1687'> +7.6860523e+01 </wgt>
<wgt id='1688'> +7.6903180e+01 </wgt>
<wgt id='1689'> +7.6110572e+01 </wgt>
<wgt id='1690'> +7.6725068e+01 </wgt>
<wgt id='1691'> +7.6670960e+01 </wgt>
<wgt id='1692'> +7.7602716e+01 </wgt>
<wgt id='1693'> +7.6536849e+01 </wgt>
<wgt id='1694'> +7.6575172e+01 </wgt>
<wgt id='1695'> +7.6796836e+01 </wgt>
<wgt id='1696'> +7.6603661e+01 </wgt>
<wgt id='1697'> +7.6626705e+01 </wgt>
<wgt id='1698'> +7.6740197e+01 </wgt>
<wgt id='1699'> +7.6458732e+01 </wgt>
<wgt id='1700'> +7.6759116e+01 </wgt>
<wgt id='1701'> +7.6422384e+01 </wgt>
<wgt id='1702'> +7.6791764e+01 </wgt>
<wgt id='1703'> +7.6126105e+01 </wgt>
<wgt id='1704'> +7.7044764e+01 </wgt>
<wgt id='1705'> +8.0640782e+01 </wgt>
<wgt id='1706'> +8.0523724e+01 </wgt>
<wgt id='1707'> +8.1626738e+01 </wgt>
<wgt id='1708'> +8.0658950e+01 </wgt>
<wgt id='1709'> +7.8701197e+01 </wgt>
<wgt id='1710'> +8.0272792e+01 </wgt>
<wgt id='1711'> +8.0682843e+01 </wgt>
<wgt id='1712'> +8.0547616e+01 </wgt>
<wgt id='1713'> +8.0584203e+01 </wgt>
<wgt id='1714'> +8.0019312e+01 </wgt>
<wgt id='1715'> +8.0562782e+01 </wgt>
<wgt id='1716'> +8.1324454e+01 </wgt>
<wgt id='1717'> +8.0773662e+01 </wgt>
<wgt id='1718'> +8.0724845e+01 </wgt>
<wgt id='1719'> +8.0483145e+01 </wgt>
<wgt id='1720'> +8.0811443e+01 </wgt>
<wgt id='1721'> +8.0590094e+01 </wgt>
<wgt id='1722'> +8.0648865e+01 </wgt>
<wgt id='1723'> +8.0665636e+01 </wgt>
<wgt id='1724'> +8.0751109e+01 </wgt>
<wgt id='1725'> +8.0251173e+01 </wgt>
<wgt id='1726'> +8.0624788e+01 </wgt>
<wgt id='1727'> +8.1128668e+01 </wgt>
<wgt id='1728'> +8.0676279e+01 </wgt>
<wgt id='1729'> +8.0482468e+01 </wgt>
<wgt id='1730'> +8.0719822e+01 </wgt>
<wgt id='1731'> +8.0245377e+01 </wgt>
<wgt id='1732'> +8.0873420e+01 </wgt>
<wgt id='1733'> +8.0787431e+01 </wgt>
<wgt id='1734'> +8.0427016e+01 </wgt>
<wgt id='1735'> +8.1876343e+01 </wgt>
<wgt id='1736'> +8.0234299e+01 </wgt>
<wgt id='1737'> +8.1222433e+01 </wgt>
<wgt id='1738'> +8.7129101e+01 </wgt>
<wgt id='1739'> +8.7362349e+01 </wgt>
<wgt id='1740'> +8.6897533e+01 </wgt>
<wgt id='1741'> +8.7040417e+01 </wgt>
<wgt id='1742'> +8.7217530e+01 </wgt>
<wgt id='1743'> +8.7332064e+01 </wgt>
<wgt id='1744'> +8.6926538e+01 </wgt>
<wgt id='1745'> +8.6799121e+01 </wgt>
<wgt id='1746'> +8.7445913e+01 </wgt>
<wgt id='1747'> +8.7501249e+01 </wgt>
<wgt id='1748'> +8.6756878e+01 </wgt>
<wgt id='1749'> +8.7472854e+01 </wgt>
<wgt id='1750'> +8.6778576e+01 </wgt>
<wgt id='1751'> +8.7132525e+01 </wgt>
<wgt id='1752'> +8.7123452e+01 </wgt>
<wgt id='1753'> +8.6980533e+01 </wgt>
<wgt id='1754'> +8.7218981e+01 </wgt>
<wgt id='1755'> +8.7055615e+01 </wgt>
<wgt id='1756'> +8.7127199e+01 </wgt>
<wgt id='1757'> +8.6788108e+01 </wgt>
<wgt id='1758'> +8.7478931e+01 </wgt>
<wgt id='1759'> +8.7590115e+01 </wgt>
<wgt id='1760'> +8.6570272e+01 </wgt>
<wgt id='1761'> +8.6605976e+01 </wgt>
<wgt id='1762'> +8.7279397e+01 </wgt>
<wgt id='1763'> +8.6997260e+01 </wgt>
<wgt id='1764'> +8.7382007e+01 </wgt>
<wgt id='1765'> +8.6350115e+01 </wgt>
<wgt id='1766'> +8.7829275e+01 </wgt>
<wgt id='1767'> +8.7129101e+01 </wgt>
<wgt id='1768'> +8.8827249e+01 </wgt>
<wgt id='1769'> +8.5055564e+01 </wgt>
<wgt id='1770'> +8.9081876e+01 </wgt>
<wgt id='1771'> +8.5701041e+01 </wgt>
<wgt id='1772'> +8.7246376e+01 </wgt>
<wgt id='1773'> +8.6747372e+01 </wgt>
<wgt id='1774'> +8.6894697e+01 </wgt>
<wgt id='1775'> +8.7362071e+01 </wgt>
<wgt id='1776'> +8.6006656e+01 </wgt>
<wgt id='1777'> +8.8246979e+01 </wgt>
<wgt id='1778'> +8.7222855e+01 </wgt>
<wgt id='1779'> +8.8192004e+01 </wgt>
<wgt id='1780'> +9.0935292e+01 </wgt>
<wgt id='1781'> +8.7851578e+01 </wgt>
<wgt id='1782'> +8.8114575e+01 </wgt>
<wgt id='1783'> +8.7624014e+01 </wgt>
<wgt id='1784'> +8.7687912e+01 </wgt>
<wgt id='1785'> +8.8049533e+01 </wgt>
<wgt id='1786'> +8.7991463e+01 </wgt>
<wgt id='1787'> +8.7746009e+01 </wgt>
<wgt id='1788'> +8.7416371e+01 </wgt>
<wgt id='1789'> +8.8300754e+01 </wgt>
<wgt id='1790'> +8.8237114e+01 </wgt>
<wgt id='1791'> +8.7495615e+01 </wgt>
<wgt id='1792'> +8.7880114e+01 </wgt>
<wgt id='1793'> +8.7856901e+01 </wgt>
<wgt id='1794'> +8.7731481e+01 </wgt>
<wgt id='1795'> +8.8006601e+01 </wgt>
<wgt id='1796'> +8.7772977e+01 </wgt>
<wgt id='1797'> +8.7956792e+01 </wgt>
<wgt id='1798'> +8.7764395e+01 </wgt>
<wgt id='1799'> +8.7955506e+01 </wgt>
<wgt id='1800'> +8.7866435e+01 </wgt>
<wgt id='1801'> +8.7864925e+01 </wgt>
<wgt id='1802'> +8.7010987e+01 </wgt>
<wgt id='1803'> +8.8612556e+01 </wgt>
<wgt id='1804'> +8.7463479e+01 </wgt>
<wgt id='1805'> +8.8277859e+01 </wgt>
<wgt id='1806'> +8.7600522e+01 </wgt>
<wgt id='1807'> +8.7926519e+01 </wgt>
<wgt id='1808'> +8.7573254e+01 </wgt>
<wgt id='1809'> +8.8139723e+01 </wgt>
<wgt id='1810'> +8.7851582e+01 </wgt>
<wgt id='1811'> +8.9828274e+01 </wgt>
<wgt id='1812'> +8.5348519e+01 </wgt>
<wgt id='1813'> +9.0172706e+01 </wgt>
<wgt id='1814'> +8.6217565e+01 </wgt>
<wgt id='1815'> +8.7255648e+01 </wgt>
<wgt id='1816'> +8.7675992e+01 </wgt>
<wgt id='1817'> +8.7649730e+01 </wgt>
<wgt id='1818'> +8.8238090e+01 </wgt>
<wgt id='1819'> +8.6253944e+01 </wgt>
<wgt id='1820'> +8.8353201e+01 </wgt>
<wgt id='1821'> +8.6995776e+01 </wgt>
<wgt id='1822'> +8.9655759e+01 </wgt>
<wgt id='1823'> +8.8717877e+01 </wgt>
<wgt id='1824'> +7.7482988e+01 </wgt>
<wgt id='1825'> +7.7448665e+01 </wgt>
<wgt id='1826'> +7.7414080e+01 </wgt>
<wgt id='1827'> +7.7379744e+01 </wgt>
<wgt id='1828'> +7.7345411e+01 </wgt>
<wgt id='1829'> +7.7310997e+01 </wgt>
<wgt id='1830'> +7.7276710e+01 </wgt>
<wgt id='1831'> +7.7242362e+01 </wgt>
<wgt id='1832'> +7.7208060e+01 </wgt>
<wgt id='1833'> +7.7173678e+01 </wgt>
<wgt id='1834'> +7.7139317e+01 </wgt>
<wgt id='1835'> +7.7104753e+01 </wgt>
<wgt id='1836'> +7.7070409e+01 </wgt>
<wgt id='1837'> +7.7036195e+01 </wgt>
<wgt id='1838'> +7.7001982e+01 </wgt>
<wgt id='1839'> +7.6967647e+01 </wgt>
<wgt id='1840'> +7.6933317e+01 </wgt>
<wgt id='1841'> +7.6899159e+01 </wgt>
<wgt id='1842'> +7.6864650e+01 </wgt>
<wgt id='1843'> +7.6830518e+01 </wgt>
<wgt id='1844'> +7.6796176e+01 </wgt>
<wgt id='1845'> +7.6762009e+01 </wgt>
<wgt id='1846'> +7.6727677e+01 </wgt>
<wgt id='1847'> +7.6693544e+01 </wgt>
<wgt id='1848'> +7.6659434e+01 </wgt>
<wgt id='1849'> +7.6624895e+01 </wgt>
<wgt id='1850'> +7.6590703e+01 </wgt>
<wgt id='1851'> +7.6556467e+01 </wgt>
<wgt id='1852'> +7.6522233e+01 </wgt>
<wgt id='1853'> +7.6487989e+01 </wgt>
<wgt id='1854'> +7.6453930e+01 </wgt>
<wgt id='1855'> +8.0179965e+01 </wgt>
<wgt id='1856'> +8.0444077e+01 </wgt>
<wgt id='1857'> +7.9789766e+01 </wgt>
<wgt id='1858'> +8.0701806e+01 </wgt>
<wgt id='1859'> +8.1112387e+01 </wgt>
<wgt id='1860'> +8.1229758e+01 </wgt>
<wgt id='1861'> +8.0773288e+01 </wgt>
<wgt id='1862'> +8.0280564e+01 </wgt>
<wgt id='1863'> +8.0171675e+01 </wgt>
<wgt id='1864'> +8.0338880e+01 </wgt>
<wgt id='1865'> +8.0080152e+01 </wgt>
<wgt id='1866'> +8.1302027e+01 </wgt>
<wgt id='1867'> +8.0111821e+01 </wgt>
<wgt id='1868'> +8.0620527e+01 </wgt>
<wgt id='1869'> +7.9558258e+01 </wgt>
<wgt id='1870'> +8.0344509e+01 </wgt>
<wgt id='1871'> +7.9993249e+01 </wgt>
<wgt id='1872'> +8.0113268e+01 </wgt>
<wgt id='1873'> +8.0804624e+01 </wgt>
<wgt id='1874'> +7.8962860e+01 </wgt>
<wgt id='1875'> +8.0246717e+01 </wgt>
<wgt id='1876'> +8.0318273e+01 </wgt>
<wgt id='1877'> +7.9756682e+01 </wgt>
<wgt id='1878'> +8.0302854e+01 </wgt>
<wgt id='1879'> +8.0476675e+01 </wgt>
<wgt id='1880'> +8.0287666e+01 </wgt>
<wgt id='1881'> +8.0080636e+01 </wgt>
<wgt id='1882'> +8.0127542e+01 </wgt>
<wgt id='1883'> +8.0392479e+01 </wgt>
<wgt id='1884'> +8.0423267e+01 </wgt>
<wgt id='1885'> +8.0194682e+01 </wgt>
<wgt id='1886'> +8.0396455e+01 </wgt>
<wgt id='1887'> +8.0207226e+01 </wgt>
<wgt id='1888'> +8.0155919e+01 </wgt>
<wgt id='1889'> +8.0180992e+01 </wgt>
<wgt id='1890'> +8.0331338e+01 </wgt>
<wgt id='1891'> +8.0813402e+01 </wgt>
<wgt id='1892'> +8.0252837e+01 </wgt>
<wgt id='1893'> +7.9927909e+01 </wgt>
<wgt id='1894'> +8.0460872e+01 </wgt>
<wgt id='1895'> +7.9737171e+01 </wgt>
<wgt id='1896'> +7.9911439e+01 </wgt>
<wgt id='1897'> +8.0160493e+01 </wgt>
<wgt id='1898'> +8.0217315e+01 </wgt>
<wgt id='1899'> +8.0192077e+01 </wgt>
<wgt id='1900'> +8.0115748e+01 </wgt>
<wgt id='1901'> +7.9864112e+01 </wgt>
<wgt id='1902'> +7.9904625e+01 </wgt>
<wgt id='1903'> +8.0024685e+01 </wgt>
<wgt id='1904'> +8.0068288e+01 </wgt>
<wgt id='1905'> +8.0049680e+01 </wgt>
<wgt id='1906'> +8.0135027e+01 </wgt>
<wgt id='1907'> +8.0271132e+01 </wgt>
<wgt id='1908'> +8.0129380e+01 </wgt>
<wgt id='1909'> +8.0098301e+01 </wgt>
<wgt id='1910'> +8.0083765e+01 </wgt>
<wgt id='1911'> +8.0339636e+01 </wgt>
<wgt id='1912'> +8.0180298e+01 </wgt>
<wgt id='1913'> +8.0114148e+01 </wgt>
<wgt id='1914'> +8.0162909e+01 </wgt>
<wgt id='1915'> +8.0185632e+01 </wgt>
<wgt id='1916'> +8.0228081e+01 </wgt>
<wgt id='1917'> +8.0223032e+01 </wgt>
<wgt id='1918'> +8.0101066e+01 </wgt>
<wgt id='1919'> +8.0132836e+01 </wgt>
<wgt id='1920'> +8.0265614e+01 </wgt>
<wgt id='1921'> +8.0188159e+01 </wgt>
<wgt id='1922'> +8.0196376e+01 </wgt>
<wgt id='1923'> +8.0124921e+01 </wgt>
<wgt id='1924'> +8.0271334e+01 </wgt>
<wgt id='1925'> +8.0254701e+01 </wgt>
<wgt id='1926'> +8.0195695e+01 </wgt>
<wgt id='1927'> +8.0205878e+01 </wgt>
<wgt id='1928'> +8.0185586e+01 </wgt>
<wgt id='1929'> +8.0188754e+01 </wgt>
<wgt id='1930'> +8.0167357e+01 </wgt>
<wgt id='1931'> +8.0130158e+01 </wgt>
<wgt id='1932'> +8.0179420e+01 </wgt>
<wgt id='1933'> +8.0207727e+01 </wgt>
<wgt id='1934'> +8.0191977e+01 </wgt>
<wgt id='1935'> +8.0168596e+01 </wgt>
<wgt id='1936'> +8.0150599e+01 </wgt>
<wgt id='1937'> +8.0152842e+01 </wgt>
<wgt id='1938'> +8.0152128e+01 </wgt>
<wgt id='1939'> +8.0196856e+01 </wgt>
<wgt id='1940'> +8.0160068e+01 </wgt>
<wgt id='1941'> +8.0173419e+01 </wgt>
<wgt id='1942'> +8.0150803e+01 </wgt>
<wgt id='1943'> +8.0193063e+01 </wgt>
<wgt id='1944'> +8.0154408e+01 </wgt>
<wgt id='1945'> +8.0214318e+01 </wgt>
<wgt id='1946'> +8.0172248e+01 </wgt>
<wgt id='1947'> +8.0198036e+01 </wgt>
<wgt id='1948'> +8.0148032e+01 </wgt>
<wgt id='1949'> +8.0193641e+01 </wgt>
<wgt id='1950'> +8.0214435e+01 </wgt>
<wgt id='1951'> +8.0159317e+01 </wgt>
<wgt id='1952'> +8.0165993e+01 </wgt>
<wgt id='1953'> +8.0161356e+01 </wgt>
<wgt id='1954'> +8.0183389e+01 </wgt>
<wgt id='1955'> +8.0188150e+01 </wgt>
<wgt id='1956'> +8.0179657e+01 </wgt>
<wgt id='1957'> +8.0181495e+01 </wgt>
<wgt id='1958'> +8.0180241e+01 </wgt>
<wgt id='1959'> +8.0180314e+01 </wgt>
<wgt id='1960'> +8.0180818e+01 </wgt>
<wgt id='1961'> +8.0180089e+01 </wgt>
<wgt id='1962'> +8.0181698e+01 </wgt>
</rwgt>
</event>
<event npLO=" -1 " npNLO=" 0 ">
 7      0 +1.5146096e+02 4.62221180e+01 7.54677110e-03 1.28976220e-01
        3 -1    0    0  502    0 +0.0000000000e+00 +0.0000000000e+00 +2.4907773000e+01 2.4907773000e+01 0.0000000000e+00 0.0000e+00 9.0000e+00
       -3 -1    0    0    0  501 +0.0000000000e+00 +0.0000000000e+00 -3.8417967000e+02 3.8417967000e+02 0.0000000000e+00 0.0000e+00 9.0000e+00
       23  2    1    2    0    0 -6.7632501000e+00 -5.4691645000e+00 -3.5449888000e+02 3.6624513000e+02 9.1599046000e+01 0.0000e+00 0.0000e+00
       13  1    3    3    0    0 +1.8257640000e+01 -3.3481526000e+01 -7.4058919000e+01 8.3301126000e+01 0.0000000000e+00 0.0000e+00 9.0000e+00
      -13  1    3    3    0    0 -2.5020890000e+01 +2.8012362000e+01 -2.8043996000e+02 2.8294400000e+02 0.0000000000e+00 0.0000e+00 9.0000e+00
       22  1    1    2    0    0 +1.5476747000e+01 -9.8231401000e+00 +9.0681626000e+00 2.0451292000e+01 0.0000000000e+00 0.0000e+00 9.0000e+00
       21  1    1    2  502  501 -8.7134968000e+00 +1.5292305000e+01 -1.3841179000e+01 2.2391021000e+01 0.0000000000e+00 0.0000e+00 9.0000e+00
#aMCatNLO 2  0  0  1  2 0.16954074E+01 0.00000000E+00 -9  6  0 0.00000000E+00 0.00000000E+00 0.00000000E+00 0.00000000E+00 0.00000000E+00
<rwgt>
<wgt id='1001'> +1.5146000e+02 </wgt>
<wgt id='1002'> +1.5146000e+02 </wgt>
<wgt id='1003'> +1.5403000e+02 </wgt>
<wgt id='1004'> +1.3978000e+02 </wgt>
<wgt id='1005'> +1.2889000e+02 </wgt>
<wgt id='1006'> +1.3941000e+02 </wgt>
<wgt id='1007'> +1.3830000e+02 </wgt>
<wgt id='1008'> +1.6420000e+02 </wgt>
<wgt id='1009'> +1.5896000e+02 </wgt>
<wgt id='1010'> +1.4581000e+02 </wgt>
<wgt id='1011'> +1.5410000e+02 </wgt>
<wgt id='1012'> +1.6345000e+02 </wgt>
<wgt id='1013'> +1.8400000e+02 </wgt>
<wgt id='1014'> +1.4255000e+02 </wgt>
<wgt id='1015'> +1.3494000e+02 </wgt>
<wgt id='1016'> +1.5834000e+02 </wgt>
<wgt id='1017'> +1.6086000e+02 </wgt>
<wgt id='1018'> +1.4429000e+02 </wgt>
<wgt id='1019'> +1.5962000e+02 </wgt>
<wgt id='1020'> +1.7908000e+02 </wgt>
<wgt id='1021'> +1.4110000e+02 </wgt>
<wgt id='1022'> +1.3050000e+02 </wgt>
<wgt id='1023'> +1.4182000e+02 </wgt>
<wgt id='1024'> +1.5229000e+02 </wgt>
<wgt id='1025'> +1.4748000e+02 </wgt>
<wgt id='1026'> +1.3517000e+02 </wgt>
<wgt id='1027'> +1.4207000e+02 </wgt>
<wgt id='1028'> +1.5913000e+02 </wgt>
<wgt id='1029'> +1.4532000e+02 </wgt>
<wgt id='1030'> +1.4988000e+02 </wgt>
<wgt id='1031'> +1.3972000e+02 </wgt>
<wgt id='1032'> +1.4213000e+02 </wgt>
<wgt id='1033'> +1.3326000e+02 </wgt>
<wgt id='1034'> +1.8277000e+02 </wgt>
<wgt id='1035'> +1.5126000e+02 </wgt>
<wgt id='1036'> +1.4467000e+02 </wgt>
<wgt id='1037'> +1.4894000e+02 </wgt>
<wgt id='1038'> +1.4072000e+02 </wgt>
<wgt id='1039'> +1.5257000e+02 </wgt>
<wgt id='1040'> +1.7792000e+02 </wgt>
<wgt id='1041'> +1.3438000e+02 </wgt>
<wgt id='1042'> +1.4371000e+02 </wgt>
<wgt id='1043'> +1.5432000e+02 </wgt>
<wgt id='1044'> +1.4722000e+02 </wgt>
<wgt id='1045'> +1.5488000e+02 </wgt>
<wgt id='1046'> +1.5766000e+02 </wgt>
<wgt id='1047'> +1.5951000e+02 </wgt>
<wgt id='1048'> +1.5271000e+02 </wgt>
<wgt id='1049'> +1.6406000e+02 </wgt>
<wgt id='1050'> +1.4652000e+02 </wgt>
<wgt id='1051'> +1.4260000e+02 </wgt>
<wgt id='1052'> +1.4361000e+02 </wgt>
<wgt id='1053'> +1.4404000e+02 </wgt>
<wgt id='1054'> +1.4439000e+02 </wgt>
<wgt id='1055'> +1.5870000e+02 </wgt>
<wgt id='1056'> +1.5912000e+02 </wgt>
<wgt id='1057'> +1.5020000e+02 </wgt>
<wgt id='1058'> +1.4827000e+02 </wgt>
<wgt id='1059'> +1.3448000e+02 </wgt>
<wgt id='1060'> +1.4581000e+02 </wgt>
<wgt id='1061'> +1.3062000e+02 </wgt>
<wgt id='1062'> +1.4762000e+02 </wgt>
<wgt id='1063'> +1.4625000e+02 </wgt>
<wgt id='1064'> +1.5041000e+02 </wgt>
<wgt id='1065'> +1.5145000e+02 </wgt>
<wgt id='1066'> +1.8975000e+02 </wgt>
<wgt id='1067'> +1.4357000e+02 </wgt>
<wgt id='1068'> +1.5486000e+02 </wgt>
<wgt id='1069'> +1.8707000e+02 </wgt>
<wgt id='1070'> +1.3977000e+02 </wgt>
<wgt id='1071'> +1.4832000e+02 </wgt>
<wgt id='1072'> +1.3339000e+02 </wgt>
<wgt id='1073'> +1.5793000e+02 </wgt>
<wgt id='1074'> +1.6642000e+02 </wgt>
<wgt id='1075'> +1.8129000e+02 </wgt>
<wgt id='1076'> +1.4961000e+02 </wgt>
<wgt id='1077'> +1.4122000e+02 </wgt>
<wgt id='1078'> +1.7520000e+02 </wgt>
<wgt id='1079'> +1.6794000e+02 </wgt>
<wgt id='1080'> +1.5446000e+02 </wgt>
<wgt id='1081'> +1.6911000e+02 </wgt>
<wgt id='1082'> +1.4346000e+02 </wgt>
<wgt id='1083'> +1.4781000e+02 </wgt>
<wgt id='1084'> +1.3594000e+02 </wgt>
<wgt id='1085'> +1.6130000e+02 </wgt>
<wgt id='1086'> +1.3190000e+02 </wgt>
<wgt id='1087'> +1.5152000e+02 </wgt>
<wgt id='1088'> +1.6596000e+02 </wgt>
<wgt id='1089'> +1.6521000e+02 </wgt>
<wgt id='1090'> +1.4111000e+02 </wgt>
<wgt id='1091'> +1.6701000e+02 </wgt>
<wgt id='1092'> +1.4317000e+02 </wgt>
<wgt id='1093'> +1.4371000e+02 </wgt>
<wgt id='1094'> +1.4359000e+02 </wgt>
<wgt id='1095'> +1.4984000e+02 </wgt>
<wgt id='1096'> +1.5642000e+02 </wgt>
<wgt id='1097'> +1.4598000e+02 </wgt>
<wgt id='1098'> +1.6728000e+02 </wgt>
<wgt id='1099'> +1.3032000e+02 </wgt>
<wgt id='1100'> +1.5214000e+02 </wgt>
<wgt id='1101'> +1.4687000e+02 </wgt>
<wgt id='1102'> +1.4333000e+02 </wgt>
<wgt id='1103'> +1.4585000e+02 </wgt>
<wgt id='1104'> +1.5258000e+02 </wgt>
<wgt id='1105'> +1.5146096e+02 </wgt>
<wgt id='1106'> +6.7955884e+01 </wgt>
<wgt id='1107'> +8.5565027e+01 </wgt>
<wgt id='1108'> +8.4632557e+01 </wgt>
<wgt id='1109'> +7.5944062e+01 </wgt>
<wgt id='1110'> +9.5623150e+01 </wgt>
<wgt id='1111'> +6.5365505e+01 </wgt>
<wgt id='1112'> +5.8654992e+01 </wgt>
<wgt id='1113'> +7.3854031e+01 </wgt>
<wgt id='1114'> +9.1198400e+01 </wgt>
<wgt id='1115'> +6.6207217e+01 </wgt>
<wgt id='1116'> +8.8724411e+01 </wgt>
<wgt id='1117'> +8.1824938e+01 </wgt>
<wgt id='1118'> +8.5038418e+01 </wgt>
<wgt id='1119'> +9.3511423e+01 </wgt>
<wgt id='1120'> +8.1957586e+01 </wgt>
<wgt id='1121'> +8.7498844e+01 </wgt>
<wgt id='1122'> +1.0249253e+02 </wgt>
<wgt id='1123'> +9.6538418e+01 </wgt>
<wgt id='1124'> +9.7823438e+01 </wgt>
<wgt id='1125'> +8.3727282e+01 </wgt>
<wgt id='1126'> +1.0090085e+02 </wgt>
<wgt id='1127'> +9.3697870e+01 </wgt>
<wgt id='1128'> +8.9900148e+01 </wgt>
<wgt id='1129'> +8.9251013e+01 </wgt>
<wgt id='1130'> +8.8055865e+01 </wgt>
<wgt id='1131'> +7.2050523e+01 </wgt>
<wgt id='1132'> +9.1884447e+01 </wgt>
<wgt id='1133'> +9.0021925e+01 </wgt>
<wgt id='1134'> +1.1091836e+02 </wgt>
<wgt id='1135'> +8.9752146e+01 </wgt>
<wgt id='1136'> +9.0052204e+01 </wgt>
<wgt id='1137'> +8.9995266e+01 </wgt>
<wgt id='1138'> +9.4241838e+01 </wgt>
<wgt id='1139'> +9.7807489e+01 </wgt>
<wgt id='1140'> +8.8089012e+01 </wgt>
<wgt id='1141'> +8.2137499e+01 </wgt>
<wgt id='1142'> +9.2758265e+01 </wgt>
<wgt id='1143'> +9.3635316e+01 </wgt>
<wgt id='1144'> +7.6104528e+01 </wgt>
<wgt id='1145'> +8.2345117e+01 </wgt>
<wgt id='1146'> +9.4202562e+01 </wgt>
<wgt id='1147'> +8.1362454e+01 </wgt>
<wgt id='1148'> +1.0344271e+02 </wgt>
<wgt id='1149'> +8.5430414e+01 </wgt>
<wgt id='1150'> +8.7159273e+01 </wgt>
<wgt id='1151'> +9.5521483e+01 </wgt>
<wgt id='1152'> +8.4796014e+01 </wgt>
<wgt id='1153'> +9.1327932e+01 </wgt>
<wgt id='1154'> +8.8819512e+01 </wgt>
<wgt id='1155'> +9.2448786e+01 </wgt>
<wgt id='1156'> +9.2465197e+01 </wgt>
<wgt id='1157'> +8.1901690e+01 </wgt>
<wgt id='1158'> +8.2153321e+01 </wgt>
<wgt id='1159'> +1.0063212e+02 </wgt>
<wgt id='1160'> +9.3001749e+01 </wgt>
<wgt id='1161'> +8.8245809e+01 </wgt>
<wgt id='1162'> +8.5617288e+01 </wgt>
<wgt id='1163'> +8.9863609e+01 </wgt>
<wgt id='1164'> +9.1702294e+01 </wgt>
<wgt id='1165'> +9.9553007e+01 </wgt>
<wgt id='1166'> +1.0048158e+02 </wgt>
<wgt id='1167'> +8.3603948e+01 </wgt>
<wgt id='1168'> +8.6227198e+01 </wgt>
<wgt id='1169'> +9.3875472e+01 </wgt>
<wgt id='1170'> +9.4354804e+01 </wgt>
<wgt id='1171'> +9.5862300e+01 </wgt>
<wgt id='1172'> +8.7105914e+01 </wgt>
<wgt id='1173'> +8.3453953e+01 </wgt>
<wgt id='1174'> +9.4130832e+01 </wgt>
<wgt id='1175'> +8.1647676e+01 </wgt>
<wgt id='1176'> +9.5165327e+01 </wgt>
<wgt id='1177'> +8.7266260e+01 </wgt>
<wgt id='1178'> +8.9657492e+01 </wgt>
<wgt id='1179'> +8.6622350e+01 </wgt>
<wgt id='1180'> +1.0272913e+02 </wgt>
<wgt id='1181'> +9.3127859e+01 </wgt>
<wgt id='1182'> +9.3053735e+01 </wgt>
<wgt id='1183'> +9.3121553e+01 </wgt>
<wgt id='1184'> +9.4500174e+01 </wgt>
<wgt id='1185'> +8.8243949e+01 </wgt>
<wgt id='1186'> +9.2739971e+01 </wgt>
<wgt id='1187'> +1.0912171e+02 </wgt>
<wgt id='1188'> +9.3102460e+01 </wgt>
<wgt id='1189'> +1.0551239e+02 </wgt>
<wgt id='1190'> +8.5215664e+01 </wgt>
<wgt id='1191'> +8.5768427e+01 </wgt>
<wgt id='1192'> +8.7683014e+01 </wgt>
<wgt id='1193'> +9.5759394e+01 </wgt>
<wgt id='1194'> +7.1669589e+01 </wgt>
<wgt id='1195'> +9.4013044e+01 </wgt>
<wgt id='1196'> +8.8055865e+01 </wgt>
<wgt id='1197'> +9.6027511e+01 </wgt>
<wgt id='1198'> +9.4281842e+01 </wgt>
<wgt id='1199'> +8.6548518e+01 </wgt>
<wgt id='1200'> +7.5782868e+01 </wgt>
<wgt id='1201'> +1.0345682e+02 </wgt>
<wgt id='1202'> +8.0285999e+01 </wgt>
<wgt id='1203'> +1.3267515e+02 </wgt>
<wgt id='1204'> +9.7446783e+01 </wgt>
<wgt id='1205'> +1.0320682e+02 </wgt>
<wgt id='1206'> +1.1532398e+02 </wgt>
<wgt id='1207'> +9.6309495e+01 </wgt>
<wgt id='1208'> +8.7116917e+01 </wgt>
<wgt id='1209'> +9.4022158e+01 </wgt>
<wgt id='1210'> +9.7535003e+01 </wgt>
<wgt id='1211'> +8.9269777e+01 </wgt>
<wgt id='1212'> +7.9724424e+01 </wgt>
<wgt id='1213'> +9.4526675e+01 </wgt>
<wgt id='1214'> +9.2589907e+01 </wgt>
<wgt id='1215'> +7.8828651e+01 </wgt>
<wgt id='1216'> +8.3958318e+01 </wgt>
<wgt id='1217'> +8.4264327e+01 </wgt>
<wgt id='1218'> +8.3672616e+01 </wgt>
<wgt id='1219'> +8.4102136e+01 </wgt>
<wgt id='1220'> +8.1806030e+01 </wgt>
<wgt id='1221'> +8.3096722e+01 </wgt>
<wgt id='1222'> +8.4905688e+01 </wgt>
<wgt id='1223'> +8.3643472e+01 </wgt>
<wgt id='1224'> +8.4498306e+01 </wgt>
<wgt id='1225'> +8.3589507e+01 </wgt>
<wgt id='1226'> +8.6590820e+01 </wgt>
<wgt id='1227'> +8.4283810e+01 </wgt>
<wgt id='1228'> +8.2660900e+01 </wgt>
<wgt id='1229'> +8.3995919e+01 </wgt>
<wgt id='1230'> +8.2558761e+01 </wgt>
<wgt id='1231'> +8.5550682e+01 </wgt>
<wgt id='1232'> +8.2458681e+01 </wgt>
<wgt id='1233'> +8.3966423e+01 </wgt>
<wgt id='1234'> +8.3173645e+01 </wgt>
<wgt id='1235'> +8.4178783e+01 </wgt>
<wgt id='1236'> +8.4430834e+01 </wgt>
<wgt id='1237'> +8.3190355e+01 </wgt>
<wgt id='1238'> +8.3732992e+01 </wgt>
<wgt id='1239'> +8.3718408e+01 </wgt>
<wgt id='1240'> +8.4112688e+01 </wgt>
<wgt id='1241'> +8.4159917e+01 </wgt>
<wgt id='1242'> +8.4314101e+01 </wgt>
<wgt id='1243'> +8.3410739e+01 </wgt>
<wgt id='1244'> +8.3636097e+01 </wgt>
<wgt id='1245'> +8.4029266e+01 </wgt>
<wgt id='1246'> +8.4016133e+01 </wgt>
<wgt id='1247'> +8.3341522e+01 </wgt>
<wgt id='1248'> +8.4620075e+01 </wgt>
<wgt id='1249'> +8.3751069e+01 </wgt>
<wgt id='1250'> +8.3889060e+01 </wgt>
<wgt id='1251'> +8.4709667e+01 </wgt>
<wgt id='1252'> +8.5043941e+01 </wgt>
<wgt id='1253'> +8.4714448e+01 </wgt>
<wgt id='1254'> +8.4670065e+01 </wgt>
<wgt id='1255'> +8.4155370e+01 </wgt>
<wgt id='1256'> +8.4627871e+01 </wgt>
<wgt id='1257'> +8.4087914e+01 </wgt>
<wgt id='1258'> +8.4192765e+01 </wgt>
<wgt id='1259'> +8.4247843e+01 </wgt>
<wgt id='1260'> +8.4416084e+01 </wgt>
<wgt id='1261'> +8.3871352e+01 </wgt>
<wgt id='1262'> +8.4779544e+01 </wgt>
<wgt id='1263'> +8.3602711e+01 </wgt>
<wgt id='1264'> +8.2884553e+01 </wgt>
<wgt id='1265'> +8.4568195e+01 </wgt>
<wgt id='1266'> +8.3910455e+01 </wgt>
<wgt id='1267'> +8.3305594e+01 </wgt>
<wgt id='1268'> +8.3997012e+01 </wgt>
<wgt id='1269'> +8.4957586e+01 </wgt>
<wgt id='1270'> +8.3104991e+01 </wgt>
<wgt id='1271'> +8.3777666e+01 </wgt>
<wgt id='1272'> +8.5267275e+01 </wgt>
<wgt id='1273'> +8.4041862e+01 </wgt>
<wgt id='1274'> +8.5268362e+01 </wgt>
<wgt id='1275'> +8.3889218e+01 </wgt>
<wgt id='1276'> +8.3450724e+01 </wgt>
<wgt id='1277'> +8.4024190e+01 </wgt>
<wgt id='1278'> +8.4858821e+01 </wgt>
<wgt id='1279'> +8.4219382e+01 </wgt>
<wgt id='1280'> +8.4207155e+01 </wgt>
<wgt id='1281'> +8.4321601e+01 </wgt>
<wgt id='1282'> +8.4154309e+01 </wgt>
<wgt id='1283'> +8.3331743e+01 </wgt>
<wgt id='1284'> +8.3101934e+01 </wgt>
<wgt id='1285'> +8.4184562e+01 </wgt>
<wgt id='1286'> +8.3741481e+01 </wgt>
<wgt id='1287'> +8.4179492e+01 </wgt>
<wgt id='1288'> +8.3783686e+01 </wgt>
<wgt id='1289'> +8.3360595e+01 </wgt>
<wgt id='1290'> +8.4212438e+01 </wgt>
<wgt id='1291'> +8.4094348e+01 </wgt>
<wgt id='1292'> +8.4371631e+01 </wgt>
<wgt id='1293'> +8.3740313e+01 </wgt>
<wgt id='1294'> +8.3419748e+01 </wgt>
<wgt id='1295'> +8.4219785e+01 </wgt>
<wgt id='1296'> +8.3859283e+01 </wgt>
<wgt id='1297'> +8.3420403e+01 </wgt>
<wgt id='1298'> +8.3918113e+01 </wgt>
<wgt id='1299'> +8.3996333e+01 </wgt>
<wgt id='1300'> +8.3812148e+01 </wgt>
<wgt id='1301'> +8.3729873e+01 </wgt>
<wgt id='1302'> +8.4091765e+01 </wgt>
<wgt id='1303'> +8.4097167e+01 </wgt>
<wgt id='1304'> +8.4235527e+01 </wgt>
<wgt id='1305'> +8.2947840e+01 </wgt>
<wgt id='1306'> +8.3874254e+01 </wgt>
<wgt id='1307'> +8.4443529e+01 </wgt>
<wgt id='1308'> +8.4376249e+01 </wgt>
<wgt id='1309'> +8.3737636e+01 </wgt>
<wgt id='1310'> +8.4380066e+01 </wgt>
<wgt id='1311'> +8.4660146e+01 </wgt>
<wgt id='1312'> +8.4194045e+01 </wgt>
<wgt id='1313'> +8.3448238e+01 </wgt>
<wgt id='1314'> +8.3448893e+01 </wgt>
<wgt id='1315'> +8.4464614e+01 </wgt>
<wgt id='1316'> +8.3775360e+01 </wgt>
<wgt id='1317'> +8.0535034e+01 </wgt>
<wgt id='1318'> +8.6944002e+01 </wgt>
<wgt id='1319'> +1.2742591e+01 </wgt>
<wgt id='1320'> +8.6832719e+01 </wgt>
<wgt id='1321'> +8.7228405e+01 </wgt>
<wgt id='1322'> +8.7337283e+01 </wgt>
<wgt id='1323'> +8.9433743e+01 </wgt>
<wgt id='1324'> +8.4714645e+01 </wgt>
<wgt id='1325'> +8.9510627e+01 </wgt>
<wgt id='1326'> +8.5421136e+01 </wgt>
<wgt id='1327'> +8.7142017e+01 </wgt>
<wgt id='1328'> +8.6717923e+01 </wgt>
<wgt id='1329'> +8.6101627e+01 </wgt>
<wgt id='1330'> +8.6842676e+01 </wgt>
<wgt id='1331'> +8.2592508e+01 </wgt>
<wgt id='1332'> +9.0181927e+01 </wgt>
<wgt id='1333'> +8.9229505e+01 </wgt>
<wgt id='1334'> +8.4158738e+01 </wgt>
<wgt id='1335'> +6.7607143e+01 </wgt>
<wgt id='1336'> +1.0943551e+02 </wgt>
<wgt id='1337'> +8.4585437e+01 </wgt>
<wgt id='1338'> +8.9368968e+01 </wgt>
<wgt id='1339'> +8.4875101e+01 </wgt>
<wgt id='1340'> +8.8863825e+01 </wgt>
<wgt id='1341'> +8.4026094e+01 </wgt>
<wgt id='1342'> +9.2274073e+01 </wgt>
<wgt id='1343'> +8.6711145e+01 </wgt>
<wgt id='1344'> +8.6773929e+01 </wgt>
<wgt id='1345'> +8.8101785e+01 </wgt>
<wgt id='1346'> +8.5742522e+01 </wgt>
<wgt id='1347'> +8.6698068e+01 </wgt>
<wgt id='1348'> +8.6895221e+01 </wgt>
<wgt id='1349'> +8.8103157e+01 </wgt>
<wgt id='1350'> +8.6386251e+01 </wgt>
<wgt id='1351'> +8.6488737e+01 </wgt>
<wgt id='1352'> +8.7233863e+01 </wgt>
<wgt id='1353'> +8.7137421e+01 </wgt>
<wgt id='1354'> +8.6053737e+01 </wgt>
<wgt id='1355'> +8.6921725e+01 </wgt>
<wgt id='1356'> +8.6780546e+01 </wgt>
<wgt id='1357'> +8.8021019e+01 </wgt>
<wgt id='1358'> +8.4281887e+01 </wgt>
<wgt id='1359'> +9.2915188e+01 </wgt>
<wgt id='1360'> +8.0162496e+01 </wgt>
<wgt id='1361'> +8.6258600e+01 </wgt>
<wgt id='1362'> +8.7684200e+01 </wgt>
<wgt id='1363'> +8.4922910e+01 </wgt>
<wgt id='1364'> +8.8377460e+01 </wgt>
<wgt id='1365'> +8.1749562e+01 </wgt>
<wgt id='1366'> +9.0051253e+01 </wgt>
<wgt id='1367'> +8.6448100e+01 </wgt>
<wgt id='1368'> +8.5250416e+01 </wgt>
<wgt id='1369'> +8.8088888e+01 </wgt>
<wgt id='1370'> +8.2235792e+01 </wgt>
<wgt id='1371'> +8.5723806e+01 </wgt>
<wgt id='1372'> +8.5405832e+01 </wgt>
<wgt id='1373'> +8.2988509e+01 </wgt>
<wgt id='1374'> +8.7353525e+01 </wgt>
<wgt id='1375'> +9.3845305e+01 </wgt>
<wgt id='1376'> +7.0741383e+01 </wgt>
<wgt id='1377'> +8.3183875e+01 </wgt>
<wgt id='1378'> +9.0284179e+01 </wgt>
<wgt id='1379'> +9.2394760e+01 </wgt>
<wgt id='1380'> +8.8515827e+01 </wgt>
<wgt id='1381'> +9.5669089e+01 </wgt>
<wgt id='1382'> +6.1427662e+01 </wgt>
<wgt id='1383'> +9.1371872e+01 </wgt>
<wgt id='1384'> +9.2224795e+01 </wgt>
<wgt id='1385'> +8.5647729e+01 </wgt>
<wgt id='1386'> +8.5810886e+01 </wgt>
<wgt id='1387'> +8.5459614e+01 </wgt>
<wgt id='1388'> +8.5367230e+01 </wgt>
<wgt id='1389'> +8.6116752e+01 </wgt>
<wgt id='1390'> +8.5697211e+01 </wgt>
<wgt id='1391'> +8.5594060e+01 </wgt>
<wgt id='1392'> +8.5675008e+01 </wgt>
<wgt id='1393'> +8.5623508e+01 </wgt>
<wgt id='1394'> +8.5399839e+01 </wgt>
<wgt id='1395'> +8.5956718e+01 </wgt>
<wgt id='1396'> +8.4737962e+01 </wgt>
<wgt id='1397'> +8.6120842e+01 </wgt>
<wgt id='1398'> +8.5600259e+01 </wgt>
<wgt id='1399'> +8.5674895e+01 </wgt>
<wgt id='1400'> +8.5716335e+01 </wgt>
<wgt id='1401'> +8.5584346e+01 </wgt>
<wgt id='1402'> +8.4819160e+01 </wgt>
<wgt id='1403'> +8.6028535e+01 </wgt>
<wgt id='1404'> +8.7675498e+01 </wgt>
<wgt id='1405'> +8.4658254e+01 </wgt>
<wgt id='1406'> +8.8364260e+01 </wgt>
<wgt id='1407'> +8.0885336e+01 </wgt>
<wgt id='1408'> +8.8489615e+01 </wgt>
<wgt id='1409'> +8.0067205e+01 </wgt>
<wgt id='1410'> +8.6171403e+01 </wgt>
<wgt id='1411'> +8.4281523e+01 </wgt>
<wgt id='1412'> +8.3892640e+01 </wgt>
<wgt id='1413'> +8.7800008e+01 </wgt>
<wgt id='1414'> +8.5403659e+01 </wgt>
<wgt id='1415'> +8.5853289e+01 </wgt>
<wgt id='1416'> +8.6052357e+01 </wgt>
<wgt id='1417'> +8.5404447e+01 </wgt>
<wgt id='1418'> +8.5497150e+01 </wgt>
<wgt id='1419'> +8.5973927e+01 </wgt>
<wgt id='1420'> +8.6108734e+01 </wgt>
<wgt id='1421'> +8.4771057e+01 </wgt>
<wgt id='1422'> +8.6610452e+01 </wgt>
<wgt id='1423'> +8.4447081e+01 </wgt>
<wgt id='1424'> +8.5374899e+01 </wgt>
<wgt id='1425'> +8.5782615e+01 </wgt>
<wgt id='1426'> +8.0725723e+01 </wgt>
<wgt id='1427'> +8.7240774e+01 </wgt>
<wgt id='1428'> +8.3126130e+01 </wgt>
<wgt id='1429'> +8.7550786e+01 </wgt>
<wgt id='1430'> +8.1794762e+01 </wgt>
<wgt id='1431'> +8.5338483e+01 </wgt>
<wgt id='1432'> +8.4420079e+01 </wgt>
<wgt id='1433'> +8.1875051e+01 </wgt>
<wgt id='1434'> +8.5165610e+01 </wgt>
<wgt id='1435'> +8.5389882e+01 </wgt>
<wgt id='1436'> +8.7494750e+01 </wgt>
<wgt id='1437'> +8.7505084e+01 </wgt>
<wgt id='1438'> +8.7529220e+01 </wgt>
<wgt id='1439'> +8.7504699e+01 </wgt>
<wgt id='1440'> +8.7054459e+01 </wgt>
<wgt id='1441'> +8.5927156e+01 </wgt>
<wgt id='1442'> +8.6083603e+01 </wgt>
<wgt id='1443'> +8.7474083e+01 </wgt>
<wgt id='1444'> +8.7339822e+01 </wgt>
<wgt id='1445'> +8.6790678e+01 </wgt>
<wgt id='1446'> +8.7728154e+01 </wgt>
<wgt id='1447'> +8.7463246e+01 </wgt>
<wgt id='1448'> +8.7578116e+01 </wgt>
<wgt id='1449'> +8.7568399e+01 </wgt>
<wgt id='1450'> +8.8150946e+01 </wgt>
<wgt id='1451'> +8.7493540e+01 </wgt>
<wgt id='1452'> +8.7154708e+01 </wgt>
<wgt id='1453'> +8.7598876e+01 </wgt>
<wgt id='1454'> +8.7739088e+01 </wgt>
<wgt id='1455'> +8.7268855e+01 </wgt>
<wgt id='1456'> +8.7405388e+01 </wgt>
<wgt id='1457'> +8.6203350e+01 </wgt>
<wgt id='1458'> +8.9211905e+01 </wgt>
<wgt id='1459'> +8.7394857e+01 </wgt>
<wgt id='1460'> +8.7743463e+01 </wgt>
<wgt id='1461'> +8.8344950e+01 </wgt>
<wgt id='1462'> +8.7468797e+01 </wgt>
<wgt id='1463'> +8.7301943e+01 </wgt>
<wgt id='1464'> +8.7680113e+01 </wgt>
<wgt id='1465'> +1.0627246e+02 </wgt>
<wgt id='1466'> +8.4330345e+01 </wgt>
<wgt id='1467'> +8.4762882e+01 </wgt>
<wgt id='1468'> +8.5392590e+01 </wgt>
<wgt id='1469'> +7.7692159e+01 </wgt>
<wgt id='1470'> +8.6376367e+01 </wgt>
<wgt id='1471'> +8.3262387e+01 </wgt>
<wgt id='1472'> +8.6214559e+01 </wgt>
<wgt id='1473'> +8.4890930e+01 </wgt>
<wgt id='1474'> +8.8761582e+01 </wgt>
<wgt id='1475'> +8.3146669e+01 </wgt>
<wgt id='1476'> +8.0645484e+01 </wgt>
<wgt id='1477'> +8.9020261e+01 </wgt>
<wgt id='1478'> +8.4459692e+01 </wgt>
<wgt id='1479'> +8.2222330e+01 </wgt>
<wgt id='1480'> +8.8906133e+01 </wgt>
<wgt id='1481'> +8.2232518e+01 </wgt>
<wgt id='1482'> +9.0411611e+01 </wgt>
<wgt id='1483'> +8.1364952e+01 </wgt>
<wgt id='1484'> +8.1495709e+01 </wgt>
<wgt id='1485'> +8.7058380e+01 </wgt>
<wgt id='1486'> +8.7191887e+01 </wgt>
<wgt id='1487'> +8.3553107e+01 </wgt>
<wgt id='1488'> +8.3285945e+01 </wgt>
<wgt id='1489'> +8.1834408e+01 </wgt>
<wgt id='1490'> +8.4130513e+01 </wgt>
<wgt id='1491'> +8.4829775e+01 </wgt>
<wgt id='1492'> +8.4533542e+01 </wgt>
<wgt id='1493'> +8.2621605e+01 </wgt>
<wgt id='1494'> +8.3708583e+01 </wgt>
<wgt id='1495'> +8.4999987e+01 </wgt>
<wgt id='1496'> +8.4187329e+01 </wgt>
<wgt id='1497'> +8.4242145e+01 </wgt>
<wgt id='1498'> +8.3906252e+01 </wgt>
<wgt id='1499'> +8.3481795e+01 </wgt>
<wgt id='1500'> +8.4427227e+01 </wgt>
<wgt id='1501'> +8.4105190e+01 </wgt>
<wgt id='1502'> +8.4884867e+01 </wgt>
<wgt id='1503'> +8.4957895e+01 </wgt>
<wgt id='1504'> +8.3539384e+01 </wgt>
<wgt id='1505'> +8.3387847e+01 </wgt>
<wgt id='1506'> +8.4183380e+01 </wgt>
<wgt id='1507'> +8.4254414e+01 </wgt>
<wgt id='1508'> +8.4344938e+01 </wgt>
<wgt id='1509'> +8.3921801e+01 </wgt>
<wgt id='1510'> +8.4770869e+01 </wgt>
<wgt id='1511'> +8.3892386e+01 </wgt>
<wgt id='1512'> +8.4984374e+01 </wgt>
<wgt id='1513'> +8.4849932e+01 </wgt>
<wgt id='1514'> +8.4289890e+01 </wgt>
<wgt id='1515'> +8.4490752e+01 </wgt>
<wgt id='1516'> +8.4513667e+01 </wgt>
<wgt id='1517'> +8.3393424e+01 </wgt>
<wgt id='1518'> +8.4985494e+01 </wgt>
<wgt id='1519'> +8.3464898e+01 </wgt>
<wgt id='1520'> +8.3588290e+01 </wgt>
<wgt id='1521'> +8.5261960e+01 </wgt>
<wgt id='1522'> +8.4888762e+01 </wgt>
<wgt id='1523'> +8.4569175e+01 </wgt>
<wgt id='1524'> +8.4175151e+01 </wgt>
<wgt id='1525'> +8.4007195e+01 </wgt>
<wgt id='1526'> +8.3995233e+01 </wgt>
<wgt id='1527'> +8.3937347e+01 </wgt>
<wgt id='1528'> +8.3925679e+01 </wgt>
<wgt id='1529'> +8.4078090e+01 </wgt>
<wgt id='1530'> +8.4128558e+01 </wgt>
<wgt id='1531'> +8.4117330e+01 </wgt>
<wgt id='1532'> +8.4623955e+01 </wgt>
<wgt id='1533'> +8.4136696e+01 </wgt>
<wgt id='1534'> +8.4191732e+01 </wgt>
<wgt id='1535'> +8.4022090e+01 </wgt>
<wgt id='1536'> +8.4098607e+01 </wgt>
<wgt id='1537'> +8.3835682e+01 </wgt>
<wgt id='1538'> +8.4077487e+01 </wgt>
<wgt id='1539'> +8.4280113e+01 </wgt>
<wgt id='1540'> +8.4180754e+01 </wgt>
<wgt id='1541'> +8.4188127e+01 </wgt>
<wgt id='1542'> +8.4512365e+01 </wgt>
<wgt id='1543'> +8.4430377e+01 </wgt>
<wgt id='1544'> +8.4454649e+01 </wgt>
<wgt id='1545'> +8.4496544e+01 </wgt>
<wgt id='1546'> +8.4518851e+01 </wgt>
<wgt id='1547'> +8.4407270e+01 </wgt>
<wgt id='1548'> +8.4424715e+01 </wgt>
<wgt id='1549'> +8.4292288e+01 </wgt>
<wgt id='1550'> +8.4259370e+01 </wgt>
<wgt id='1551'> +8.4492425e+01 </wgt>
<wgt id='1552'> +8.4371294e+01 </wgt>
<wgt id='1553'> +8.4236780e+01 </wgt>
<wgt id='1554'> +8.4312617e+01 </wgt>
<wgt id='1555'> +8.4271265e+01 </wgt>
<wgt id='1556'> +8.4171244e+01 </wgt>
<wgt id='1557'> +8.4314785e+01 </wgt>
<wgt id='1558'> +8.4411249e+01 </wgt>
<wgt id='1559'> +8.4344085e+01 </wgt>
<wgt id='1560'> +8.4424223e+01 </wgt>
<wgt id='1561'> +8.4216835e+01 </wgt>
<wgt id='1562'> +8.4290346e+01 </wgt>
<wgt id='1563'> +8.4499247e+01 </wgt>
<wgt id='1564'> +8.4284849e+01 </wgt>
<wgt id='1565'> +8.4384757e+01 </wgt>
<wgt id='1566'> +8.4319312e+01 </wgt>
<wgt id='1567'> +8.1680479e+01 </wgt>
<wgt id='1568'> +8.7485601e+01 </wgt>
<wgt id='1569'> +8.7693651e+01 </wgt>
<wgt id='1570'> +9.0127630e+01 </wgt>
<wgt id='1571'> +8.7205813e+01 </wgt>
<wgt id='1572'> +8.8312871e+01 </wgt>
<wgt id='1573'> +8.4739192e+01 </wgt>
<wgt id='1574'> +8.3609806e+01 </wgt>
<wgt id='1575'> +8.5210112e+01 </wgt>
<wgt id='1576'> +8.5192736e+01 </wgt>
<wgt id='1577'> +8.7701738e+01 </wgt>
<wgt id='1578'> +8.7823599e+01 </wgt>
<wgt id='1579'> +9.1487063e+01 </wgt>
<wgt id='1580'> +8.0014219e+01 </wgt>
<wgt id='1581'> +8.6223016e+01 </wgt>
<wgt id='1582'> +8.8314175e+01 </wgt>
<wgt id='1583'> +8.6672984e+01 </wgt>
<wgt id='1584'> +8.6988305e+01 </wgt>
<wgt id='1585'> +8.5376630e+01 </wgt>
<wgt id='1586'> +9.1986465e+01 </wgt>
<wgt id='1587'> +8.3019754e+01 </wgt>
<wgt id='1588'> +8.9733084e+01 </wgt>
<wgt id='1589'> +8.8204634e+01 </wgt>
<wgt id='1590'> +8.8368585e+01 </wgt>
<wgt id='1591'> +9.1582509e+01 </wgt>
<wgt id='1592'> +9.0629303e+01 </wgt>
<wgt id='1593'> +8.5975494e+01 </wgt>
<wgt id='1594'> +8.7048296e+01 </wgt>
<wgt id='1595'> +8.9694279e+01 </wgt>
<wgt id='1596'> +8.6685371e+01 </wgt>
<wgt id='1597'> +8.8465316e+01 </wgt>
<wgt id='1598'> +8.8841006e+01 </wgt>
<wgt id='1599'> +8.8029568e+01 </wgt>
<wgt id='1600'> +8.8808989e+01 </wgt>
<wgt id='1601'> +8.7244724e+01 </wgt>
<wgt id='1602'> +8.8604940e+01 </wgt>
<wgt id='1603'> +8.6997992e+01 </wgt>
<wgt id='1604'> +8.7874111e+01 </wgt>
<wgt id='1605'> +8.7418093e+01 </wgt>
<wgt id='1606'> +8.9278234e+01 </wgt>
<wgt id='1607'> +8.7660551e+01 </wgt>
<wgt id='1608'> +8.6996060e+01 </wgt>
<wgt id='1609'> +8.8313727e+01 </wgt>
<wgt id='1610'> +8.7010692e+01 </wgt>
<wgt id='1611'> +8.7500677e+01 </wgt>
<wgt id='1612'> +8.8909989e+01 </wgt>
<wgt id='1613'> +8.8059797e+01 </wgt>
<wgt id='1614'> +8.7699274e+01 </wgt>
<wgt id='1615'> +8.6689212e+01 </wgt>
<wgt id='1616'> +8.7840355e+01 </wgt>
<wgt id='1617'> +8.7152014e+01 </wgt>
<wgt id='1618'> +8.6996484e+01 </wgt>
<wgt id='1619'> +8.7287724e+01 </wgt>
<wgt id='1620'> +8.7605188e+01 </wgt>
<wgt id='1621'> +8.7730905e+01 </wgt>
<wgt id='1622'> +8.7280476e+01 </wgt>
<wgt id='1623'> +8.7375711e+01 </wgt>
<wgt id='1624'> +8.8557100e+01 </wgt>
<wgt id='1625'> +8.7420597e+01 </wgt>
<wgt id='1626'> +8.7520753e+01 </wgt>
<wgt id='1627'> +8.7359389e+01 </wgt>
<wgt id='1628'> +8.7757490e+01 </wgt>
<wgt id='1629'> +8.7475711e+01 </wgt>
<wgt id='1630'> +8.7826054e+01 </wgt>
<wgt id='1631'> +8.7758876e+01 </wgt>
<wgt id='1632'> +8.7412422e+01 </wgt>
<wgt id='1633'> +8.7764282e+01 </wgt>
<wgt id='1634'> +8.7428314e+01 </wgt>
<wgt id='1635'> +8.8010410e+01 </wgt>
<wgt id='1636'> +8.7698238e+01 </wgt>
<wgt id='1637'> +8.8321719e+01 </wgt>
<wgt id='1638'> +8.8232601e+01 </wgt>
<wgt id='1639'> +8.8077436e+01 </wgt>
<wgt id='1640'> +8.7767237e+01 </wgt>
<wgt id='1641'> +8.8001562e+01 </wgt>
<wgt id='1642'> +8.7117550e+01 </wgt>
<wgt id='1643'> +8.8025742e+01 </wgt>
<wgt id='1644'> +8.7702034e+01 </wgt>
<wgt id='1645'> +8.7465412e+01 </wgt>
<wgt id='1646'> +8.7815563e+01 </wgt>
<wgt id='1647'> +8.7432707e+01 </wgt>
<wgt id='1648'> +8.7516785e+01 </wgt>
<wgt id='1649'> +8.7991151e+01 </wgt>
<wgt id='1650'> +8.7493421e+01 </wgt>
<wgt id='1651'> +8.7793210e+01 </wgt>
<wgt id='1652'> +8.7681066e+01 </wgt>
<wgt id='1653'> +8.7624163e+01 </wgt>
<wgt id='1654'> +8.7816140e+01 </wgt>
<wgt id='1655'> +8.7617793e+01 </wgt>
<wgt id='1656'> +8.7784414e+01 </wgt>
<wgt id='1657'> +8.7470323e+01 </wgt>
<wgt id='1658'> +8.7772426e+01 </wgt>
<wgt id='1659'> +8.7864747e+01 </wgt>
<wgt id='1660'> +8.7592456e+01 </wgt>
<wgt id='1661'> +8.7811884e+01 </wgt>
<wgt id='1662'> +8.7646136e+01 </wgt>
<wgt id='1663'> +8.7705616e+01 </wgt>
<wgt id='1664'> +8.7804674e+01 </wgt>
<wgt id='1665'> +8.7684328e+01 </wgt>
<wgt id='1666'> +8.7717317e+01 </wgt>
<wgt id='1667'> +8.7789830e+01 </wgt>
<wgt id='1668'> +8.7663234e+01 </wgt>
<wgt id='1669'> +8.7682879e+01 </wgt>
<wgt id='1670'> +8.4612673e+01 </wgt>
<wgt id='1671'> +8.9911455e+01 </wgt>
<wgt id='1672'> +8.4332160e+01 </wgt>
<wgt id='1673'> +8.2123469e+01 </wgt>
<wgt id='1674'> +9.7565065e+01 </wgt>
<wgt id='1675'> +8.4291910e+01 </wgt>
<wgt id='1676'> +8.5812980e+01 </wgt>
<wgt id='1677'> +8.3517509e+01 </wgt>
<wgt id='1678'> +8.4760906e+01 </wgt>
<wgt id='1679'> +8.4466531e+01 </wgt>
<wgt id='1680'> +8.4292921e+01 </wgt>
<wgt id='1681'> +8.2600729e+01 </wgt>
<wgt id='1682'> +8.3815857e+01 </wgt>
<wgt id='1683'> +8.8966838e+01 </wgt>
<wgt id='1684'> +8.3892285e+01 </wgt>
<wgt id='1685'> +8.4306331e+01 </wgt>
<wgt id='1686'> +8.6279900e+01 </wgt>
<wgt id='1687'> +8.5212958e+01 </wgt>
<wgt id='1688'> +8.4940715e+01 </wgt>
<wgt id='1689'> +8.3886327e+01 </wgt>
<wgt id='1690'> +8.4213442e+01 </wgt>
<wgt id='1691'> +8.4375504e+01 </wgt>
<wgt id='1692'> +8.3005070e+01 </wgt>
<wgt id='1693'> +8.6240516e+01 </wgt>
<wgt id='1694'> +8.3768402e+01 </wgt>
<wgt id='1695'> +8.4110739e+01 </wgt>
<wgt id='1696'> +8.4151820e+01 </wgt>
<wgt id='1697'> +8.4417609e+01 </wgt>
<wgt id='1698'> +8.3066222e+01 </wgt>
<wgt id='1699'> +8.4900751e+01 </wgt>
<wgt id='1700'> +8.3707355e+01 </wgt>
<wgt id='1701'> +8.5464450e+01 </wgt>
<wgt id='1702'> +8.4283896e+01 </wgt>
<wgt id='1703'> +8.1680479e+01 </wgt>
<wgt id='1704'> +8.7485601e+01 </wgt>
<wgt id='1705'> +8.7693375e+01 </wgt>
<wgt id='1706'> +9.3467651e+01 </wgt>
<wgt id='1707'> +8.3054783e+01 </wgt>
<wgt id='1708'> +8.8112595e+01 </wgt>
<wgt id='1709'> +8.9635566e+01 </wgt>
<wgt id='1710'> +8.7984525e+01 </wgt>
<wgt id='1711'> +8.8450950e+01 </wgt>
<wgt id='1712'> +8.8554993e+01 </wgt>
<wgt id='1713'> +8.9043248e+01 </wgt>
<wgt id='1714'> +9.4593900e+01 </wgt>
<wgt id='1715'> +8.7057512e+01 </wgt>
<wgt id='1716'> +8.2077927e+01 </wgt>
<wgt id='1717'> +8.7098714e+01 </wgt>
<wgt id='1718'> +8.7555757e+01 </wgt>
<wgt id='1719'> +8.8617156e+01 </wgt>
<wgt id='1720'> +8.8038894e+01 </wgt>
<wgt id='1721'> +8.8050599e+01 </wgt>
<wgt id='1722'> +8.8309967e+01 </wgt>
<wgt id='1723'> +8.8286643e+01 </wgt>
<wgt id='1724'> +8.8552205e+01 </wgt>
<wgt id='1725'> +8.7440528e+01 </wgt>
<wgt id='1726'> +8.7655774e+01 </wgt>
<wgt id='1727'> +8.4030937e+01 </wgt>
<wgt id='1728'> +8.7524153e+01 </wgt>
<wgt id='1729'> +8.6224835e+01 </wgt>
<wgt id='1730'> +8.8768211e+01 </wgt>
<wgt id='1731'> +8.9359730e+01 </wgt>
<wgt id='1732'> +8.5690113e+01 </wgt>
<wgt id='1733'> +8.5775972e+01 </wgt>
<wgt id='1734'> +8.9660183e+01 </wgt>
<wgt id='1735'> +8.6585926e+01 </wgt>
<wgt id='1736'> +8.4612673e+01 </wgt>
<wgt id='1737'> +8.9911455e+01 </wgt>
<wgt id='1738'> +1.0033782e+02 </wgt>
<wgt id='1739'> +1.0055934e+02 </wgt>
<wgt id='1740'> +1.0011756e+02 </wgt>
<wgt id='1741'> +1.0017974e+02 </wgt>
<wgt id='1742'> +1.0049533e+02 </wgt>
<wgt id='1743'> +1.0055494e+02 </wgt>
<wgt id='1744'> +1.0012105e+02 </wgt>
<wgt id='1745'> +9.9868284e+01 </wgt>
<wgt id='1746'> +1.0079603e+02 </wgt>
<wgt id='1747'> +1.0088319e+02 </wgt>
<wgt id='1748'> +9.9794331e+01 </wgt>
<wgt id='1749'> +1.0056059e+02 </wgt>
<wgt id='1750'> +1.0012075e+02 </wgt>
<wgt id='1751'> +1.0038815e+02 </wgt>
<wgt id='1752'> +1.0028547e+02 </wgt>
<wgt id='1753'> +1.0025018e+02 </wgt>
<wgt id='1754'> +1.0036578e+02 </wgt>
<wgt id='1755'> +1.0002109e+02 </wgt>
<wgt id='1756'> +1.0061622e+02 </wgt>
<wgt id='1757'> +1.0051065e+02 </wgt>
<wgt id='1758'> +1.0016054e+02 </wgt>
<wgt id='1759'> +9.9084810e+01 </wgt>
<wgt id='1760'> +1.0152296e+02 </wgt>
<wgt id='1761'> +1.0251194e+02 </wgt>
<wgt id='1762'> +9.7989777e+01 </wgt>
<wgt id='1763'> +1.0051628e+02 </wgt>
<wgt id='1764'> +1.0027417e+02 </wgt>
<wgt id='1765'> +1.0066033e+02 </wgt>
<wgt id='1766'> +1.0009311e+02 </wgt>
<wgt id='1767'> +1.0033782e+02 </wgt>
<wgt id='1768'> +8.1435175e+01 </wgt>
<wgt id='1769'> +1.2386137e+02 </wgt>
<wgt id='1770'> +6.1116302e+01 </wgt>
<wgt id='1771'> +8.1760209e+01 </wgt>
<wgt id='1772'> +9.9851547e+01 </wgt>
<wgt id='1773'> +1.0078417e+02 </wgt>
<wgt id='1774'> +1.0034284e+02 </wgt>
<wgt id='1775'> +1.0022493e+02 </wgt>
<wgt id='1776'> +9.9552520e+01 </wgt>
<wgt id='1777'> +1.0093120e+02 </wgt>
<wgt id='1778'> +1.0072756e+02 </wgt>
<wgt id='1779'> +1.0042337e+02 </wgt>
<wgt id='1780'> +9.6006527e+01 </wgt>
<wgt id='1781'> +9.9520227e+01 </wgt>
<wgt id='1782'> +9.9700049e+01 </wgt>
<wgt id='1783'> +9.9300038e+01 </wgt>
<wgt id='1784'> +9.9282973e+01 </wgt>
<wgt id='1785'> +9.9716371e+01 </wgt>
<wgt id='1786'> +9.9628387e+01 </wgt>
<wgt id='1787'> +9.9370887e+01 </wgt>
<wgt id='1788'> +9.8959825e+01 </wgt>
<wgt id='1789'> +1.0002444e+02 </wgt>
<wgt id='1790'> +9.9852807e+01 </wgt>
<wgt id='1791'> +9.9145838e+01 </wgt>
<wgt id='1792'> +9.9663050e+01 </wgt>
<wgt id='1793'> +9.9338375e+01 </wgt>
<wgt id='1794'> +9.9318773e+01 </wgt>
<wgt id='1795'> +9.9679583e+01 </wgt>
<wgt id='1796'> +9.9448024e+01 </wgt>
<wgt id='1797'> +9.9500743e+01 </wgt>
<wgt id='1798'> +9.9619937e+01 </wgt>
<wgt id='1799'> +9.9363910e+01 </wgt>
<wgt id='1800'> +9.9285449e+01 </wgt>
<wgt id='1801'> +9.9714242e+01 </wgt>
<wgt id='1802'> +1.0020095e+02 </wgt>
<wgt id='1803'> +9.8683516e+01 </wgt>
<wgt id='1804'> +1.0170343e+02 </wgt>
<wgt id='1805'> +9.7429093e+01 </wgt>
<wgt id='1806'> +1.0369844e+02 </wgt>
<wgt id='1807'> +9.5694779e+01 </wgt>
<wgt id='1808'> +1.0260665e+02 </wgt>
<wgt id='1809'> +9.6780552e+01 </wgt>
<wgt id='1810'> +9.9499951e+01 </wgt>
<wgt id='1811'> +8.1677989e+01 </wgt>
<wgt id='1812'> +1.2217805e+02 </wgt>
<wgt id='1813'> +6.3595015e+01 </wgt>
<wgt id='1814'> +8.4674575e+01 </wgt>
<wgt id='1815'> +1.0505569e+02 </wgt>
<wgt id='1816'> +9.9869919e+01 </wgt>
<wgt id='1817'> +9.9315445e+01 </wgt>
<wgt id='1818'> +9.8512006e+01 </wgt>
<wgt id='1819'> +1.0244959e+02 </wgt>
<wgt id='1820'> +1.0617866e+02 </wgt>
<wgt id='1821'> +1.0402004e+02 </wgt>
<wgt id='1822'> +9.4897787e+01 </wgt>
<wgt id='1823'> +9.8423159e+01 </wgt>
<wgt id='1824'> +8.5943349e+01 </wgt>
<wgt id='1825'> +8.5905837e+01 </wgt>
<wgt id='1826'> +8.5868265e+01 </wgt>
<wgt id='1827'> +8.5830724e+01 </wgt>
<wgt id='1828'> +8.5793546e+01 </wgt>
<wgt id='1829'> +8.5755624e+01 </wgt>
<wgt id='1830'> +8.5718111e+01 </wgt>
<wgt id='1831'> +8.5680507e+01 </wgt>
<wgt id='1832'> +8.5642945e+01 </wgt>
<wgt id='1833'> +8.5605449e+01 </wgt>
<wgt id='1834'> +8.5567556e+01 </wgt>
<wgt id='1835'> +8.5530065e+01 </wgt>
<wgt id='1836'> +8.5492627e+01 </wgt>
<wgt id='1837'> +8.5455558e+01 </wgt>
<wgt id='1838'> +8.5417697e+01 </wgt>
<wgt id='1839'> +8.5380107e+01 </wgt>
<wgt id='1840'> +8.5342667e+01 </wgt>
<wgt id='1841'> +8.5305179e+01 </wgt>
<wgt id='1842'> +8.5267772e+01 </wgt>
<wgt id='1843'> +8.5229961e+01 </wgt>
<wgt id='1844'> +8.5192498e+01 </wgt>
<wgt id='1845'> +8.5155173e+01 </wgt>
<wgt id='1846'> +8.5118006e+01 </wgt>
<wgt id='1847'> +8.5080638e+01 </wgt>
<wgt id='1848'> +8.5042844e+01 </wgt>
<wgt id='1849'> +8.5005451e+01 </wgt>
<wgt id='1850'> +8.4968170e+01 </wgt>
<wgt id='1851'> +8.4930716e+01 </wgt>
<wgt id='1852'> +8.4892987e+01 </wgt>
<wgt id='1853'> +8.4855635e+01 </wgt>
<wgt id='1854'> +8.4818172e+01 </wgt>
<wgt id='1855'> +8.7309740e+01 </wgt>
<wgt id='1856'> +8.9707667e+01 </wgt>
<wgt id='1857'> +8.6817690e+01 </wgt>
<wgt id='1858'> +8.7927465e+01 </wgt>
<wgt id='1859'> +8.4354696e+01 </wgt>
<wgt id='1860'> +8.3229262e+01 </wgt>
<wgt id='1861'> +8.4850863e+01 </wgt>
<wgt id='1862'> +8.4838124e+01 </wgt>
<wgt id='1863'> +8.7319848e+01 </wgt>
<wgt id='1864'> +8.7438288e+01 </wgt>
<wgt id='1865'> +9.1089870e+01 </wgt>
<wgt id='1866'> +7.9674194e+01 </wgt>
<wgt id='1867'> +8.5853597e+01 </wgt>
<wgt id='1868'> +8.7935676e+01 </wgt>
<wgt id='1869'> +8.6286792e+01 </wgt>
<wgt id='1870'> +8.6566406e+01 </wgt>
<wgt id='1871'> +8.5030276e+01 </wgt>
<wgt id='1872'> +9.1578984e+01 </wgt>
<wgt id='1873'> +8.2642985e+01 </wgt>
<wgt id='1874'> +8.9361098e+01 </wgt>
<wgt id='1875'> +8.7842063e+01 </wgt>
<wgt id='1876'> +8.7967079e+01 </wgt>
<wgt id='1877'> +9.1178091e+01 </wgt>
<wgt id='1878'> +9.0247140e+01 </wgt>
<wgt id='1879'> +8.5585371e+01 </wgt>
<wgt id='1880'> +8.6648519e+01 </wgt>
<wgt id='1881'> +8.9280779e+01 </wgt>
<wgt id='1882'> +8.6326995e+01 </wgt>
<wgt id='1883'> +8.8089178e+01 </wgt>
<wgt id='1884'> +8.8440607e+01 </wgt>
<wgt id='1885'> +8.7631659e+01 </wgt>
<wgt id='1886'> +8.8447871e+01 </wgt>
<wgt id='1887'> +8.6853395e+01 </wgt>
<wgt id='1888'> +8.8209642e+01 </wgt>
<wgt id='1889'> +8.6615533e+01 </wgt>
<wgt id='1890'> +8.7482430e+01 </wgt>
<wgt id='1891'> +8.7036435e+01 </wgt>
<wgt id='1892'> +8.8889693e+01 </wgt>
<wgt id='1893'> +8.7274064e+01 </wgt>
<wgt id='1894'> +8.6606496e+01 </wgt>
<wgt id='1895'> +8.7927190e+01 </wgt>
<wgt id='1896'> +8.6622873e+01 </wgt>
<wgt id='1897'> +8.7115059e+01 </wgt>
<wgt id='1898'> +8.8534406e+01 </wgt>
<wgt id='1899'> +8.7672743e+01 </wgt>
<wgt id='1900'> +8.7312694e+01 </wgt>
<wgt id='1901'> +8.6317687e+01 </wgt>
<wgt id='1902'> +8.7449024e+01 </wgt>
<wgt id='1903'> +8.6775396e+01 </wgt>
<wgt id='1904'> +8.6618126e+01 </wgt>
<wgt id='1905'> +8.6907832e+01 </wgt>
<wgt id='1906'> +8.7217585e+01 </wgt>
<wgt id='1907'> +8.7347163e+01 </wgt>
<wgt id='1908'> +8.6901798e+01 </wgt>
<wgt id='1909'> +8.6996027e+01 </wgt>
<wgt id='1910'> +8.8171461e+01 </wgt>
<wgt id='1911'> +8.7029198e+01 </wgt>
<wgt id='1912'> +8.7137924e+01 </wgt>
<wgt id='1913'> +8.6983244e+01 </wgt>
<wgt id='1914'> +8.7375851e+01 </wgt>
<wgt id='1915'> +8.7096167e+01 </wgt>
<wgt id='1916'> +8.7443207e+01 </wgt>
<wgt id='1917'> +8.7370635e+01 </wgt>
<wgt id='1918'> +8.7025566e+01 </wgt>
<wgt id='1919'> +8.7383757e+01 </wgt>
<wgt id='1920'> +8.7044623e+01 </wgt>
<wgt id='1921'> +8.7624842e+01 </wgt>
<wgt id='1922'> +8.7311602e+01 </wgt>
<wgt id='1923'> +8.7934887e+01 </wgt>
<wgt id='1924'> +8.7844054e+01 </wgt>
<wgt id='1925'> +8.7688780e+01 </wgt>
<wgt id='1926'> +8.7384928e+01 </wgt>
<wgt id='1927'> +8.7615131e+01 </wgt>
<wgt id='1928'> +8.6735376e+01 </wgt>
<wgt id='1929'> +8.7640283e+01 </wgt>
<wgt id='1930'> +8.7318388e+01 </wgt>
<wgt id='1931'> +8.7087702e+01 </wgt>
<wgt id='1932'> +8.7431022e+01 </wgt>
<wgt id='1933'> +8.7053155e+01 </wgt>
<wgt id='1934'> +8.7134694e+01 </wgt>
<wgt id='1935'> +8.7602145e+01 </wgt>
<wgt id='1936'> +8.7117202e+01 </wgt>
<wgt id='1937'> +8.7410624e+01 </wgt>
<wgt id='1938'> +8.7296800e+01 </wgt>
<wgt id='1939'> +8.7239279e+01 </wgt>
<wgt id='1940'> +8.7432196e+01 </wgt>
<wgt id='1941'> +8.7241463e+01 </wgt>
<wgt id='1942'> +8.7396900e+01 </wgt>
<wgt id='1943'> +8.7087813e+01 </wgt>
<wgt id='1944'> +8.7385505e+01 </wgt>
<wgt id='1945'> +8.7478341e+01 </wgt>
<wgt id='1946'> +8.7207657e+01 </wgt>
<wgt id='1947'> +8.7424665e+01 </wgt>
<wgt id='1948'> +8.7264451e+01 </wgt>
<wgt id='1949'> +8.7318022e+01 </wgt>
<wgt id='1950'> +8.7418499e+01 </wgt>
<wgt id='1951'> +8.7302557e+01 </wgt>
<wgt id='1952'> +8.7334157e+01 </wgt>
<wgt id='1953'> +8.7403174e+01 </wgt>
<wgt id='1954'> +8.7281125e+01 </wgt>
<wgt id='1955'> +8.7300480e+01 </wgt>
<wgt id='1956'> +8.7309444e+01 </wgt>
<wgt id='1957'> +8.7311342e+01 </wgt>
<wgt id='1958'> +8.7310050e+01 </wgt>
<wgt id='1959'> +8.7310101e+01 </wgt>
<wgt id='1960'> +8.7310644e+01 </wgt>
<wgt id='1961'> +8.7309873e+01 </wgt>
<wgt id='1962'> +8.7311664e+01 </wgt>
</rwgt>
</event>
<event npLO=" -1 " npNLO=" 1 ">
 7      1 +1.5146096e+02 3.26829850e+01 7.54677110e-03 1.23868030e-01
       -1 -1    0    0    0  501 +0.0000000000e+00 +0.0000000000e+00 +1.9026312000e+02 1.9026312000e+02 0.0000000000e+00 0.0000e+00 9.0000e+00
        1 -1    0    0  502    0 +0.0000000000e+00 +0.0000000000e+00 -5.3026955000e+01 5.3026955000e+01 0.0000000000e+00 0.0000e+00 9.0000e+00
       23  2    1    2    0    0 -4.3997403000e+01 +1.6965549000e+01 +1.6237864000e+02 1.8985090000e+02 8.6330407000e+01 0.0000e+00 0.0000e+00
       11  1    3    3    0    0 +2.0563265000e+01 +8.8116472000e+00 +8.0448650000e+01 8.3501367000e+01 0.0000000000e+00 0.0000e+00 9.0000e+00
      -11  1    3    3    0    0 -3.6195600000e+01 +9.4683178000e+00 +3.3555379000e+01 5.0256681000e+01 0.0000000000e+00 0.0000e+00 9.0000e+00
       22  1    3    3    0    0 -2.8365068000e+01 -1.3144159000e+00 +4.8374612000e+01 5.6092851000e+01 0.0000000000e+00 0.0000e+00 9.0000e+00
       21  1    1    2  502  501 +4.3997403000e+01 -1.6965549000e+01 -2.5142477000e+01 5.3439176000e+01 0.0000000000e+00 0.0000e+00 9.0000e+00
#aMCatNLO 1  0  0  6  2 0.22787695E+02 0.00000000E+00 -9  7  0 0.00000000E+00 0.00000000E+00 0.00000000E+00 0.00000000E+00 0.00000000E+00
<rwgt>
<wgt id='1001'> +1.5146000e+02 </wgt>
<wgt id='1002'> +1.5146000e+02 </wgt>
<wgt id='1003'> +1.3734000e+02 </wgt>
<wgt id='1004'> +1.5421000e+02 </wgt>
<wgt id='1005'> +1.5400000e+02 </wgt>
<wgt id='1006'> +1.5521000e+02 </wgt>
<wgt id='1007'> +1.4388000e+02 </wgt>
<wgt id='1008'> +1.4101000e+02 </wgt>
<wgt id='1009'> +1.5189000e+02 </wgt>
<wgt id='1010'> +1.5087000e+02 </wgt>
<wgt id='1011'> +1.5423000e+02 </wgt>
<wgt id='1012'> +1.4843000e+02 </wgt>
<wgt id='1013'> +1.4671000e+02 </wgt>
<wgt id='1014'> +1.5357000e+02 </wgt>
<wgt id='1015'> +1.5357000e+02 </wgt>
<wgt id='1016'> +1.5309000e+02 </wgt>
<wgt id='1017'> +1.4959000e+02 </wgt>
<wgt id='1018'> +1.5411000e+02 </wgt>
<wgt id='1019'> +1.4592000e+02 </wgt>
<wgt id='1020'> +1.4460000e+02 </wgt>
<wgt id='1021'> +1.5185000e+02 </wgt>
<wgt id='1022'> +1.6197000e+02 </wgt>
<wgt id='1023'> +1.5818000e+02 </wgt>
<wgt id='1024'> +1.5099000e+02 </wgt>
<wgt id='1025'> +1.5677000e+02 </wgt>
<wgt id='1026'> +1.6052000e+02 </wgt>
<wgt id='1027'> +1.5713000e+02 </wgt>
<wgt id='1028'> +1.4951000e+02 </wgt>
<wgt id='1029'> +1.5159000e+02 </wgt>
<wgt id='1030'> +1.5334000e+02 </wgt>
<wgt id='1031'> +1.4983000e+02 </wgt>
<wgt id='1032'> +1.5671000e+02 </wgt>
<wgt id='1033'> +1.5990000e+02 </wgt>
<wgt id='1034'> +1.4847000e+02 </wgt>
<wgt id='1035'> +1.5362000e+02 </wgt>
<wgt id='1036'> +1.5235000e+02 </wgt>
<wgt id='1037'> +1.6007000e+02 </wgt>
<wgt id='1038'> +1.5134000e+02 </wgt>
<wgt id='1039'> +1.5138000e+02 </wgt>
<wgt id='1040'> +1.4489000e+02 </wgt>
<wgt id='1041'> +1.4515000e+02 </wgt>
<wgt id='1042'> +1.5520000e+02 </wgt>
<wgt id='1043'> +1.5004000e+02 </wgt>
<wgt id='1044'> +1.5222000e+02 </wgt>
<wgt id='1045'> +1.5268000e+02 </wgt>
<wgt id='1046'> +1.5012000e+02 </wgt>
<wgt id='1047'> +1.5220000e+02 </wgt>
<wgt id='1048'> +1.4689000e+02 </wgt>
<wgt id='1049'> +1.4722000e+02 </wgt>
<wgt id='1050'> +1.4998000e+02 </wgt>
<wgt id='1051'> +1.5691000e+02 </wgt>
<wgt id='1052'> +1.5430000e+02 </wgt>
<wgt id='1053'> +1.5200000e+02 </wgt>
<wgt id='1054'> +1.4997000e+02 </wgt>
<wgt id='1055'> +1.5042000e+02 </wgt>
<wgt id='1056'> +1.5154000e+02 </wgt>
<wgt id='1057'> +1.5409000e+02 </wgt>
<wgt id='1058'> +1.4463000e+02 </wgt>
<wgt id='1059'> +1.4953000e+02 </wgt>
<wgt id='1060'> +1.5029000e+02 </wgt>
<wgt id='1061'> +1.5591000e+02 </wgt>
<wgt id='1062'> +1.5547000e+02 </wgt>
<wgt id='1063'> +1.5219000e+02 </wgt>
<wgt id='1064'> +1.5468000e+02 </wgt>
<wgt id='1065'> +1.5595000e+02 </wgt>
<wgt id='1066'> +1.4491000e+02 </wgt>
<wgt id='1067'> +1.5645000e+02 </wgt>
<wgt id='1068'> +1.5512000e+02 </wgt>
<wgt id='1069'> +1.4224000e+02 </wgt>
<wgt id='1070'> +1.5114000e+02 </wgt>
<wgt id='1071'> +1.5125000e+02 </wgt>
<wgt id='1072'> +1.5473000e+02 </wgt>
<wgt id='1073'> +1.4983000e+02 </wgt>
<wgt id='1074'> +1.4735000e+02 </wgt>
<wgt id='1075'> +1.3887000e+02 </wgt>
<wgt id='1076'> +1.5320000e+02 </wgt>
<wgt id='1077'> +1.5260000e+02 </wgt>
<wgt id='1078'> +1.5086000e+02 </wgt>
<wgt id='1079'> +1.5132000e+02 </wgt>
<wgt id='1080'> +1.5224000e+02 </wgt>
<wgt id='1081'> +1.4832000e+02 </wgt>
<wgt id='1082'> +1.5716000e+02 </wgt>
<wgt id='1083'> +1.5485000e+02 </wgt>
<wgt id='1084'> +1.5740000e+02 </wgt>
<wgt id='1085'> +1.4443000e+02 </wgt>
<wgt id='1086'> +1.5390000e+02 </wgt>
<wgt id='1087'> +1.5270000e+02 </wgt>
<wgt id='1088'> +1.5148000e+02 </wgt>
<wgt id='1089'> +1.5138000e+02 </wgt>
<wgt id='1090'> +1.4925000e+02 </wgt>
<wgt id='1091'> +1.5114000e+02 </wgt>
<wgt id='1092'> +1.5652000e+02 </wgt>
<wgt id='1093'> +1.5307000e+02 </wgt>
<wgt id='1094'> +1.5450000e+02 </wgt>
<wgt id='1095'> +1.5130000e+02 </wgt>
<wgt id='1096'> +1.4758000e+02 </wgt>
<wgt id='1097'> +1.4142000e+02 </wgt>
<wgt id='1098'> +1.4846000e+02 </wgt>
<wgt id='1099'> +1.5779000e+02 </wgt>
<wgt id='1100'> +1.5272000e+02 </wgt>
<wgt id='1101'> +1.5395000e+02 </wgt>
<wgt id='1102'> +1.4328000e+02 </wgt>
<wgt id='1103'> +1.4993000e+02 </wgt>
<wgt id='1104'> +1.5319000e+02 </wgt>
<wgt id='1105'> +1.5146096e+02 </wgt>
<wgt id='1106'> +7.3193673e+01 </wgt>
<wgt id='1107'> +7.7235942e+01 </wgt>
<wgt id='1108'> +8.0175830e+01 </wgt>
<wgt id='1109'> +7.7589070e+01 </wgt>
<wgt id='1110'> +8.1611752e+01 </wgt>
<wgt id='1111'> +7.0178113e+01 </wgt>
<wgt id='1112'> +6.7743969e+01 </wgt>
<wgt id='1113'> +7.1706058e+01 </wgt>
<wgt id='1114'> +8.1562406e+01 </wgt>
<wgt id='1115'> +9.4355433e+01 </wgt>
<wgt id='1116'> +8.1651932e+01 </wgt>
<wgt id='1117'> +8.0225431e+01 </wgt>
<wgt id='1118'> +8.2155313e+01 </wgt>
<wgt id='1119'> +8.0313982e+01 </wgt>
<wgt id='1120'> +8.5090983e+01 </wgt>
<wgt id='1121'> +8.2763864e+01 </wgt>
<wgt id='1122'> +7.6471070e+01 </wgt>
<wgt id='1123'> +7.7915421e+01 </wgt>
<wgt id='1124'> +8.2279875e+01 </wgt>
<wgt id='1125'> +8.0693854e+01 </wgt>
<wgt id='1126'> +7.8844752e+01 </wgt>
<wgt id='1127'> +8.0139491e+01 </wgt>
<wgt id='1128'> +7.9792201e+01 </wgt>
<wgt id='1129'> +8.1278360e+01 </wgt>
<wgt id='1130'> +8.1425384e+01 </wgt>
<wgt id='1131'> +8.5612116e+01 </wgt>
<wgt id='1132'> +8.1513392e+01 </wgt>
<wgt id='1133'> +8.2323190e+01 </wgt>
<wgt id='1134'> +7.6733076e+01 </wgt>
<wgt id='1135'> +7.9830927e+01 </wgt>
<wgt id='1136'> +8.4151923e+01 </wgt>
<wgt id='1137'> +8.5214926e+01 </wgt>
<wgt id='1138'> +7.9929473e+01 </wgt>
<wgt id='1139'> +7.7498577e+01 </wgt>
<wgt id='1140'> +7.9856684e+01 </wgt>
<wgt id='1141'> +9.1471004e+01 </wgt>
<wgt id='1142'> +8.1015304e+01 </wgt>
<wgt id='1143'> +8.1550022e+01 </wgt>
<wgt id='1144'> +8.3332334e+01 </wgt>
<wgt id='1145'> +8.3729277e+01 </wgt>
<wgt id='1146'> +7.9962234e+01 </wgt>
<wgt id='1147'> +8.7894762e+01 </wgt>
<wgt id='1148'> +7.7025469e+01 </wgt>
<wgt id='1149'> +8.3698365e+01 </wgt>
<wgt id='1150'> +7.9879265e+01 </wgt>
<wgt id='1151'> +8.2743073e+01 </wgt>
<wgt id='1152'> +7.9781394e+01 </wgt>
<wgt id='1153'> +7.9870985e+01 </wgt>
<wgt id='1154'> +8.0043595e+01 </wgt>
<wgt id='1155'> +8.2526660e+01 </wgt>
<wgt id='1156'> +8.1803386e+01 </wgt>
<wgt id='1157'> +8.6847828e+01 </wgt>
<wgt id='1158'> +8.4921046e+01 </wgt>
<wgt id='1159'> +8.1678361e+01 </wgt>
<wgt id='1160'> +8.2989164e+01 </wgt>
<wgt id='1161'> +8.1098893e+01 </wgt>
<wgt id='1162'> +7.7049599e+01 </wgt>
<wgt id='1163'> +8.2787820e+01 </wgt>
<wgt id='1164'> +8.5350328e+01 </wgt>
<wgt id='1165'> +8.0665127e+01 </wgt>
<wgt id='1166'> +8.0379593e+01 </wgt>
<wgt id='1167'> +8.0579795e+01 </wgt>
<wgt id='1168'> +8.6397974e+01 </wgt>
<wgt id='1169'> +8.2848969e+01 </wgt>
<wgt id='1170'> +8.3586078e+01 </wgt>
<wgt id='1171'> +8.5970616e+01 </wgt>
<wgt id='1172'> +8.0580994e+01 </wgt>
<wgt id='1173'> +7.8751652e+01 </wgt>
<wgt id='1174'> +8.4383436e+01 </wgt>
<wgt id='1175'> +8.3618097e+01 </wgt>
<wgt id='1176'> +8.1735088e+01 </wgt>
<wgt id='1177'> +8.3227796e+01 </wgt>
<wgt id='1178'> +7.8869321e+01 </wgt>
<wgt id='1179'> +8.4616637e+01 </wgt>
<wgt id='1180'> +7.8807277e+01 </wgt>
<wgt id='1181'> +8.7581933e+01 </wgt>
<wgt id='1182'> +8.3139903e+01 </wgt>
<wgt id='1183'> +8.0230534e+01 </wgt>
<wgt id='1184'> +7.9793524e+01 </wgt>
<wgt id='1185'> +8.2061078e+01 </wgt>
<wgt id='1186'> +8.2202943e+01 </wgt>
<wgt id='1187'> +7.5498292e+01 </wgt>
<wgt id='1188'> +7.8377312e+01 </wgt>
<wgt id='1189'> +7.5946243e+01 </wgt>
<wgt id='1190'> +8.4476696e+01 </wgt>
<wgt id='1191'> +8.0924445e+01 </wgt>
<wgt id='1192'> +8.1248617e+01 </wgt>
<wgt id='1193'> +7.9046891e+01 </wgt>
<wgt id='1194'> +8.2920925e+01 </wgt>
<wgt id='1195'> +8.3487829e+01 </wgt>
<wgt id='1196'> +8.1425384e+01 </wgt>
<wgt id='1197'> +8.1585705e+01 </wgt>
<wgt id='1198'> +7.8832087e+01 </wgt>
<wgt id='1199'> +7.9652840e+01 </wgt>
<wgt id='1200'> +8.5318851e+01 </wgt>
<wgt id='1201'> +7.9250025e+01 </wgt>
<wgt id='1202'> +8.5916173e+01 </wgt>
<wgt id='1203'> +6.7841192e+01 </wgt>
<wgt id='1204'> +8.0523522e+01 </wgt>
<wgt id='1205'> +8.1757265e+01 </wgt>
<wgt id='1206'> +7.3768822e+01 </wgt>
<wgt id='1207'> +7.7358415e+01 </wgt>
<wgt id='1208'> +8.4608933e+01 </wgt>
<wgt id='1209'> +8.3012770e+01 </wgt>
<wgt id='1210'> +7.9393298e+01 </wgt>
<wgt id='1211'> +8.5169593e+01 </wgt>
<wgt id='1212'> +8.1222409e+01 </wgt>
<wgt id='1213'> +7.9159424e+01 </wgt>
<wgt id='1214'> +8.3375460e+01 </wgt>
<wgt id='1215'> +7.7080031e+01 </wgt>
<wgt id='1216'> +8.0958288e+01 </wgt>
<wgt id='1217'> +8.0802479e+01 </wgt>
<wgt id='1218'> +8.1145677e+01 </wgt>
<wgt id='1219'> +8.0822774e+01 </wgt>
<wgt id='1220'> +8.1425115e+01 </wgt>
<wgt id='1221'> +8.0979832e+01 </wgt>
<wgt id='1222'> +8.0586177e+01 </wgt>
<wgt id='1223'> +8.1046545e+01 </wgt>
<wgt id='1224'> +8.0958309e+01 </wgt>
<wgt id='1225'> +8.1218860e+01 </wgt>
<wgt id='1226'> +8.0163483e+01 </wgt>
<wgt id='1227'> +8.0821159e+01 </wgt>
<wgt id='1228'> +8.1191723e+01 </wgt>
<wgt id='1229'> +8.1287228e+01 </wgt>
<wgt id='1230'> +8.1439748e+01 </wgt>
<wgt id='1231'> +8.0286623e+01 </wgt>
<wgt id='1232'> +8.1781616e+01 </wgt>
<wgt id='1233'> +8.0534074e+01 </wgt>
<wgt id='1234'> +8.1244177e+01 </wgt>
<wgt id='1235'> +8.0782087e+01 </wgt>
<wgt id='1236'> +8.0453100e+01 </wgt>
<wgt id='1237'> +8.1898807e+01 </wgt>
<wgt id='1238'> +8.1048664e+01 </wgt>
<wgt id='1239'> +8.0798981e+01 </wgt>
<wgt id='1240'> +8.1627986e+01 </wgt>
<wgt id='1241'> +8.0487636e+01 </wgt>
<wgt id='1242'> +8.0891805e+01 </wgt>
<wgt id='1243'> +8.0949580e+01 </wgt>
<wgt id='1244'> +8.0881701e+01 </wgt>
<wgt id='1245'> +8.1404007e+01 </wgt>
<wgt id='1246'> +8.1210763e+01 </wgt>
<wgt id='1247'> +8.1116507e+01 </wgt>
<wgt id='1248'> +8.0624182e+01 </wgt>
<wgt id='1249'> +8.1246603e+01 </wgt>
<wgt id='1250'> +8.0751062e+01 </wgt>
<wgt id='1251'> +8.0675411e+01 </wgt>
<wgt id='1252'> +8.0265606e+01 </wgt>
<wgt id='1253'> +8.0766789e+01 </wgt>
<wgt id='1254'> +8.0312476e+01 </wgt>
<wgt id='1255'> +8.0835960e+01 </wgt>
<wgt id='1256'> +8.0905908e+01 </wgt>
<wgt id='1257'> +8.0407157e+01 </wgt>
<wgt id='1258'> +8.0826954e+01 </wgt>
<wgt id='1259'> +8.1614300e+01 </wgt>
<wgt id='1260'> +8.0679084e+01 </wgt>
<wgt id='1261'> +8.0943665e+01 </wgt>
<wgt id='1262'> +8.0736276e+01 </wgt>
<wgt id='1263'> +8.1134176e+01 </wgt>
<wgt id='1264'> +8.1310212e+01 </wgt>
<wgt id='1265'> +8.0821832e+01 </wgt>
<wgt id='1266'> +8.1201056e+01 </wgt>
<wgt id='1267'> +8.1180889e+01 </wgt>
<wgt id='1268'> +8.0896506e+01 </wgt>
<wgt id='1269'> +8.0915433e+01 </wgt>
<wgt id='1270'> +8.1025934e+01 </wgt>
<wgt id='1271'> +8.0939257e+01 </wgt>
<wgt id='1272'> +8.0994059e+01 </wgt>
<wgt id='1273'> +8.0805767e+01 </wgt>
<wgt id='1274'> +8.0863840e+01 </wgt>
<wgt id='1275'> +8.0982565e+01 </wgt>
<wgt id='1276'> +8.1066286e+01 </wgt>
<wgt id='1277'> +8.1125360e+01 </wgt>
<wgt id='1278'> +8.1147110e+01 </wgt>
<wgt id='1279'> +8.1065296e+01 </wgt>
<wgt id='1280'> +8.0960447e+01 </wgt>
<wgt id='1281'> +8.1106172e+01 </wgt>
<wgt id='1282'> +8.1058853e+01 </wgt>
<wgt id='1283'> +8.0904864e+01 </wgt>
<wgt id='1284'> +8.0786266e+01 </wgt>
<wgt id='1285'> +8.0895194e+01 </wgt>
<wgt id='1286'> +8.1000411e+01 </wgt>
<wgt id='1287'> +8.0862558e+01 </wgt>
<wgt id='1288'> +8.0960159e+01 </wgt>
<wgt id='1289'> +8.0848525e+01 </wgt>
<wgt id='1290'> +8.1011926e+01 </wgt>
<wgt id='1291'> +8.1264053e+01 </wgt>
<wgt id='1292'> +8.0827872e+01 </wgt>
<wgt id='1293'> +8.1067448e+01 </wgt>
<wgt id='1294'> +8.0986245e+01 </wgt>
<wgt id='1295'> +8.1189776e+01 </wgt>
<wgt id='1296'> +8.0836870e+01 </wgt>
<wgt id='1297'> +8.0839541e+01 </wgt>
<wgt id='1298'> +8.0904425e+01 </wgt>
<wgt id='1299'> +8.0931243e+01 </wgt>
<wgt id='1300'> +8.1088283e+01 </wgt>
<wgt id='1301'> +8.0956367e+01 </wgt>
<wgt id='1302'> +8.0891179e+01 </wgt>
<wgt id='1303'> +8.0889779e+01 </wgt>
<wgt id='1304'> +8.0938418e+01 </wgt>
<wgt id='1305'> +8.0973812e+01 </wgt>
<wgt id='1306'> +8.0948861e+01 </wgt>
<wgt id='1307'> +8.1005197e+01 </wgt>
<wgt id='1308'> +8.1119973e+01 </wgt>
<wgt id='1309'> +8.0982043e+01 </wgt>
<wgt id='1310'> +8.1000284e+01 </wgt>
<wgt id='1311'> +8.0990421e+01 </wgt>
<wgt id='1312'> +8.1005615e+01 </wgt>
<wgt id='1313'> +8.0903138e+01 </wgt>
<wgt id='1314'> +8.0924766e+01 </wgt>
<wgt id='1315'> +8.0936526e+01 </wgt>
<wgt id='1316'> +8.1068023e+01 </wgt>
<wgt id='1317'> +7.9581112e+01 </wgt>
<wgt id='1318'> +8.2657292e+01 </wgt>
<wgt id='1319'> +9.3238882e+01 </wgt>
<wgt id='1320'> +7.6568010e+01 </wgt>
<wgt id='1321'> +7.7505788e+01 </wgt>
<wgt id='1322'> +7.6434409e+01 </wgt>
<wgt id='1323'> +7.6556158e+01 </wgt>
<wgt id='1324'> +7.6502186e+01 </wgt>
<wgt id='1325'> +7.7589219e+01 </wgt>
<wgt id='1326'> +7.6268395e+01 </wgt>
<wgt id='1327'> +7.6966311e+01 </wgt>
<wgt id='1328'> +7.7694424e+01 </wgt>
<wgt id='1329'> +7.5873548e+01 </wgt>
<wgt id='1330'> +7.6813785e+01 </wgt>
<wgt id='1331'> +7.3914339e+01 </wgt>
<wgt id='1332'> +7.8822244e+01 </wgt>
<wgt id='1333'> +7.5757165e+01 </wgt>
<wgt id='1334'> +7.6043152e+01 </wgt>
<wgt id='1335'> +7.8833033e+01 </wgt>
<wgt id='1336'> +7.3230068e+01 </wgt>
<wgt id='1337'> +8.0086064e+01 </wgt>
<wgt id='1338'> +7.2700917e+01 </wgt>
<wgt id='1339'> +7.6925580e+01 </wgt>
<wgt id='1340'> +7.6094086e+01 </wgt>
<wgt id='1341'> +7.6966934e+01 </wgt>
<wgt id='1342'> +7.5621457e+01 </wgt>
<wgt id='1343'> +7.7707003e+01 </wgt>
<wgt id='1344'> +7.5231752e+01 </wgt>
<wgt id='1345'> +7.5903092e+01 </wgt>
<wgt id='1346'> +7.7122559e+01 </wgt>
<wgt id='1347'> +7.6153359e+01 </wgt>
<wgt id='1348'> +7.6989209e+01 </wgt>
<wgt id='1349'> +7.7072326e+01 </wgt>
<wgt id='1350'> +7.6390753e+01 </wgt>
<wgt id='1351'> +7.7716318e+01 </wgt>
<wgt id='1352'> +7.5092759e+01 </wgt>
<wgt id='1353'> +7.6582965e+01 </wgt>
<wgt id='1354'> +7.6525663e+01 </wgt>
<wgt id='1355'> +7.6984724e+01 </wgt>
<wgt id='1356'> +7.6316793e+01 </wgt>
<wgt id='1357'> +7.7015236e+01 </wgt>
<wgt id='1358'> +7.5256036e+01 </wgt>
<wgt id='1359'> +7.4933306e+01 </wgt>
<wgt id='1360'> +7.6994301e+01 </wgt>
<wgt id='1361'> +7.5666095e+01 </wgt>
<wgt id='1362'> +7.7830017e+01 </wgt>
<wgt id='1363'> +7.7226560e+01 </wgt>
<wgt id='1364'> +7.5444333e+01 </wgt>
<wgt id='1365'> +7.6002153e+01 </wgt>
<wgt id='1366'> +7.4841756e+01 </wgt>
<wgt id='1367'> +7.4216859e+01 </wgt>
<wgt id='1368'> +7.6446591e+01 </wgt>
<wgt id='1369'> +7.4897643e+01 </wgt>
<wgt id='1370'> +7.6582497e+01 </wgt>
<wgt id='1371'> +7.5250471e+01 </wgt>
<wgt id='1372'> +7.4644306e+01 </wgt>
<wgt id='1373'> +7.5985217e+01 </wgt>
<wgt id='1374'> +7.6013447e+01 </wgt>
<wgt id='1375'> +7.5962611e+01 </wgt>
<wgt id='1376'> +7.9052442e+01 </wgt>
<wgt id='1377'> +7.4420770e+01 </wgt>
<wgt id='1378'> +7.8655861e+01 </wgt>
<wgt id='1379'> +7.6138203e+01 </wgt>
<wgt id='1380'> +7.3987977e+01 </wgt>
<wgt id='1381'> +7.8401441e+01 </wgt>
<wgt id='1382'> +7.2948049e+01 </wgt>
<wgt id='1383'> +7.5357507e+01 </wgt>
<wgt id='1384'> +7.7517744e+01 </wgt>
<wgt id='1385'> +7.9817038e+01 </wgt>
<wgt id='1386'> +8.0386390e+01 </wgt>
<wgt id='1387'> +7.9185383e+01 </wgt>
<wgt id='1388'> +7.9822096e+01 </wgt>
<wgt id='1389'> +7.9796956e+01 </wgt>
<wgt id='1390'> +8.0406114e+01 </wgt>
<wgt id='1391'> +7.9120431e+01 </wgt>
<wgt id='1392'> +7.9652319e+01 </wgt>
<wgt id='1393'> +7.9932403e+01 </wgt>
<wgt id='1394'> +7.9962191e+01 </wgt>
<wgt id='1395'> +7.9638080e+01 </wgt>
<wgt id='1396'> +7.9713919e+01 </wgt>
<wgt id='1397'> +7.9860597e+01 </wgt>
<wgt id='1398'> +7.9297464e+01 </wgt>
<wgt id='1399'> +8.0200290e+01 </wgt>
<wgt id='1400'> +7.9984847e+01 </wgt>
<wgt id='1401'> +7.9683695e+01 </wgt>
<wgt id='1402'> +7.9192661e+01 </wgt>
<wgt id='1403'> +8.0097570e+01 </wgt>
<wgt id='1404'> +7.8592946e+01 </wgt>
<wgt id='1405'> +8.0449157e+01 </wgt>
<wgt id='1406'> +7.9588222e+01 </wgt>
<wgt id='1407'> +8.0215230e+01 </wgt>
<wgt id='1408'> +7.8970021e+01 </wgt>
<wgt id='1409'> +8.1535460e+01 </wgt>
<wgt id='1410'> +7.9759258e+01 </wgt>
<wgt id='1411'> +7.9806505e+01 </wgt>
<wgt id='1412'> +8.0260868e+01 </wgt>
<wgt id='1413'> +7.9243624e+01 </wgt>
<wgt id='1414'> +7.9371546e+01 </wgt>
<wgt id='1415'> +8.0145552e+01 </wgt>
<wgt id='1416'> +7.8491245e+01 </wgt>
<wgt id='1417'> +8.0485181e+01 </wgt>
<wgt id='1418'> +7.9709919e+01 </wgt>
<wgt id='1419'> +7.9969381e+01 </wgt>
<wgt id='1420'> +7.9215958e+01 </wgt>
<wgt id='1421'> +8.0205869e+01 </wgt>
<wgt id='1422'> +8.0083744e+01 </wgt>
<wgt id='1423'> +7.9495173e+01 </wgt>
<wgt id='1424'> +8.0214639e+01 </wgt>
<wgt id='1425'> +7.9075626e+01 </wgt>
<wgt id='1426'> +8.1030442e+01 </wgt>
<wgt id='1427'> +7.9842433e+01 </wgt>
<wgt id='1428'> +7.9453733e+01 </wgt>
<wgt id='1429'> +7.8889879e+01 </wgt>
<wgt id='1430'> +8.0800558e+01 </wgt>
<wgt id='1431'> +8.0356770e+01 </wgt>
<wgt id='1432'> +8.0461822e+01 </wgt>
<wgt id='1433'> +8.0924263e+01 </wgt>
<wgt id='1434'> +8.0167254e+01 </wgt>
<wgt id='1435'> +7.9364170e+01 </wgt>
<wgt id='1436'> +6.6142239e+01 </wgt>
<wgt id='1437'> +6.6131731e+01 </wgt>
<wgt id='1438'> +6.6279086e+01 </wgt>
<wgt id='1439'> +6.6151648e+01 </wgt>
<wgt id='1440'> +6.5714162e+01 </wgt>
<wgt id='1441'> +6.6753817e+01 </wgt>
<wgt id='1442'> +6.5931368e+01 </wgt>
<wgt id='1443'> +6.5979343e+01 </wgt>
<wgt id='1444'> +6.6145019e+01 </wgt>
<wgt id='1445'> +6.5403681e+01 </wgt>
<wgt id='1446'> +6.6416555e+01 </wgt>
<wgt id='1447'> +6.6019761e+01 </wgt>
<wgt id='1448'> +6.6028972e+01 </wgt>
<wgt id='1449'> +6.6283109e+01 </wgt>
<wgt id='1450'> +6.6170759e+01 </wgt>
<wgt id='1451'> +6.6235940e+01 </wgt>
<wgt id='1452'> +6.6106870e+01 </wgt>
<wgt id='1453'> +6.6319573e+01 </wgt>
<wgt id='1454'> +6.6282323e+01 </wgt>
<wgt id='1455'> +6.6354358e+01 </wgt>
<wgt id='1456'> +6.6505399e+01 </wgt>
<wgt id='1457'> +6.6487249e+01 </wgt>
<wgt id='1458'> +6.6352594e+01 </wgt>
<wgt id='1459'> +6.6234522e+01 </wgt>
<wgt id='1460'> +6.6028654e+01 </wgt>
<wgt id='1461'> +6.5761675e+01 </wgt>
<wgt id='1462'> +6.6148991e+01 </wgt>
<wgt id='1463'> +6.5986784e+01 </wgt>
<wgt id='1464'> +6.6001273e+01 </wgt>
<wgt id='1465'> +7.3831512e+01 </wgt>
<wgt id='1466'> +7.5914282e+01 </wgt>
<wgt id='1467'> +7.5776699e+01 </wgt>
<wgt id='1468'> +7.5314036e+01 </wgt>
<wgt id='1469'> +7.7023162e+01 </wgt>
<wgt id='1470'> +7.5587754e+01 </wgt>
<wgt id='1471'> +7.6016817e+01 </wgt>
<wgt id='1472'> +7.5181143e+01 </wgt>
<wgt id='1473'> +7.6509989e+01 </wgt>
<wgt id='1474'> +7.6243011e+01 </wgt>
<wgt id='1475'> +7.5824575e+01 </wgt>
<wgt id='1476'> +7.6163972e+01 </wgt>
<wgt id='1477'> +7.4878256e+01 </wgt>
<wgt id='1478'> +7.5781696e+01 </wgt>
<wgt id='1479'> +7.5728865e+01 </wgt>
<wgt id='1480'> +7.5585598e+01 </wgt>
<wgt id='1481'> +7.5940937e+01 </wgt>
<wgt id='1482'> +7.5112101e+01 </wgt>
<wgt id='1483'> +7.6553317e+01 </wgt>
<wgt id='1484'> +7.7323036e+01 </wgt>
<wgt id='1485'> +7.5432789e+01 </wgt>
<wgt id='1486'> +7.6199587e+01 </wgt>
<wgt id='1487'> +7.6056039e+01 </wgt>
<wgt id='1488'> +7.5825255e+01 </wgt>
<wgt id='1489'> +7.6677101e+01 </wgt>
<wgt id='1490'> +7.5775770e+01 </wgt>
<wgt id='1491'> +7.5440600e+01 </wgt>
<wgt id='1492'> +7.5792951e+01 </wgt>
<wgt id='1493'> +7.6270171e+01 </wgt>
<wgt id='1494'> +7.5101396e+01 </wgt>
<wgt id='1495'> +7.6004531e+01 </wgt>
<wgt id='1496'> +7.6505755e+01 </wgt>
<wgt id='1497'> +7.5769736e+01 </wgt>
<wgt id='1498'> +7.6223371e+01 </wgt>
<wgt id='1499'> +7.6088884e+01 </wgt>
<wgt id='1500'> +7.6597346e+01 </wgt>
<wgt id='1501'> +7.5999781e+01 </wgt>
<wgt id='1502'> +7.5828089e+01 </wgt>
<wgt id='1503'> +7.6412146e+01 </wgt>
<wgt id='1504'> +7.5421154e+01 </wgt>
<wgt id='1505'> +7.6178112e+01 </wgt>
<wgt id='1506'> +7.6173061e+01 </wgt>
<wgt id='1507'> +7.5854563e+01 </wgt>
<wgt id='1508'> +7.6086308e+01 </wgt>
<wgt id='1509'> +7.5729900e+01 </wgt>
<wgt id='1510'> +7.6396684e+01 </wgt>
<wgt id='1511'> +7.6063791e+01 </wgt>
<wgt id='1512'> +7.5872984e+01 </wgt>
<wgt id='1513'> +7.5687701e+01 </wgt>
<wgt id='1514'> +7.5672305e+01 </wgt>
<wgt id='1515'> +7.5988029e+01 </wgt>
<wgt id='1516'> +7.5933810e+01 </wgt>
<wgt id='1517'> +7.5829130e+01 </wgt>
<wgt id='1518'> +7.5800291e+01 </wgt>
<wgt id='1519'> +7.6018760e+01 </wgt>
<wgt id='1520'> +7.5949361e+01 </wgt>
<wgt id='1521'> +7.5755770e+01 </wgt>
<wgt id='1522'> +7.5976143e+01 </wgt>
<wgt id='1523'> +7.6047017e+01 </wgt>
<wgt id='1524'> +7.5985079e+01 </wgt>
<wgt id='1525'> +7.5891091e+01 </wgt>
<wgt id='1526'> +7.5827334e+01 </wgt>
<wgt id='1527'> +7.5696836e+01 </wgt>
<wgt id='1528'> +7.5973370e+01 </wgt>
<wgt id='1529'> +7.6048891e+01 </wgt>
<wgt id='1530'> +7.5877666e+01 </wgt>
<wgt id='1531'> +7.5929207e+01 </wgt>
<wgt id='1532'> +7.6071777e+01 </wgt>
<wgt id='1533'> +7.5924433e+01 </wgt>
<wgt id='1534'> +7.5938217e+01 </wgt>
<wgt id='1535'> +7.5891456e+01 </wgt>
<wgt id='1536'> +7.5870100e+01 </wgt>
<wgt id='1537'> +7.5869749e+01 </wgt>
<wgt id='1538'> +7.5892981e+01 </wgt>
<wgt id='1539'> +7.5862260e+01 </wgt>
<wgt id='1540'> +7.5942423e+01 </wgt>
<wgt id='1541'> +7.5926614e+01 </wgt>
<wgt id='1542'> +7.5839562e+01 </wgt>
<wgt id='1543'> +7.5929184e+01 </wgt>
<wgt id='1544'> +7.5910017e+01 </wgt>
<wgt id='1545'> +7.5918567e+01 </wgt>
<wgt id='1546'> +7.5911647e+01 </wgt>
<wgt id='1547'> +7.5919745e+01 </wgt>
<wgt id='1548'> +7.5856970e+01 </wgt>
<wgt id='1549'> +7.5876543e+01 </wgt>
<wgt id='1550'> +7.5913648e+01 </wgt>
<wgt id='1551'> +7.5977875e+01 </wgt>
<wgt id='1552'> +7.5903239e+01 </wgt>
<wgt id='1553'> +7.5878072e+01 </wgt>
<wgt id='1554'> +7.5953566e+01 </wgt>
<wgt id='1555'> +7.5890160e+01 </wgt>
<wgt id='1556'> +7.5915869e+01 </wgt>
<wgt id='1557'> +7.5908319e+01 </wgt>
<wgt id='1558'> +7.5883551e+01 </wgt>
<wgt id='1559'> +7.5935119e+01 </wgt>
<wgt id='1560'> +7.5902783e+01 </wgt>
<wgt id='1561'> +7.5875033e+01 </wgt>
<wgt id='1562'> +7.5903514e+01 </wgt>
<wgt id='1563'> +7.5953082e+01 </wgt>
<wgt id='1564'> +7.5913811e+01 </wgt>
<wgt id='1565'> +7.5886674e+01 </wgt>
<wgt id='1566'> +7.5922203e+01 </wgt>
<wgt id='1567'> +7.4215886e+01 </wgt>
<wgt id='1568'> +7.7344684e+01 </wgt>
<wgt id='1569'> +7.7027167e+01 </wgt>
<wgt id='1570'> +7.7049358e+01 </wgt>
<wgt id='1571'> +7.6900606e+01 </wgt>
<wgt id='1572'> +7.7205337e+01 </wgt>
<wgt id='1573'> +7.7740277e+01 </wgt>
<wgt id='1574'> +7.7700042e+01 </wgt>
<wgt id='1575'> +7.7246213e+01 </wgt>
<wgt id='1576'> +7.7334886e+01 </wgt>
<wgt id='1577'> +7.7096370e+01 </wgt>
<wgt id='1578'> +7.7165788e+01 </wgt>
<wgt id='1579'> +7.6617816e+01 </wgt>
<wgt id='1580'> +7.8006862e+01 </wgt>
<wgt id='1581'> +7.7051199e+01 </wgt>
<wgt id='1582'> +7.7136912e+01 </wgt>
<wgt id='1583'> +7.6909989e+01 </wgt>
<wgt id='1584'> +7.7993146e+01 </wgt>
<wgt id='1585'> +7.6762829e+01 </wgt>
<wgt id='1586'> +7.6826990e+01 </wgt>
<wgt id='1587'> +7.7875002e+01 </wgt>
<wgt id='1588'> +7.5768363e+01 </wgt>
<wgt id='1589'> +7.6808237e+01 </wgt>
<wgt id='1590'> +7.7314846e+01 </wgt>
<wgt id='1591'> +7.5707178e+01 </wgt>
<wgt id='1592'> +7.7343560e+01 </wgt>
<wgt id='1593'> +7.7469623e+01 </wgt>
<wgt id='1594'> +7.6870706e+01 </wgt>
<wgt id='1595'> +7.6661075e+01 </wgt>
<wgt id='1596'> +7.7060715e+01 </wgt>
<wgt id='1597'> +7.7085262e+01 </wgt>
<wgt id='1598'> +7.6631377e+01 </wgt>
<wgt id='1599'> +7.6722991e+01 </wgt>
<wgt id='1600'> +7.6915501e+01 </wgt>
<wgt id='1601'> +7.6599777e+01 </wgt>
<wgt id='1602'> +7.6492851e+01 </wgt>
<wgt id='1603'> +7.6307378e+01 </wgt>
<wgt id='1604'> +7.7916918e+01 </wgt>
<wgt id='1605'> +7.6703540e+01 </wgt>
<wgt id='1606'> +7.7149749e+01 </wgt>
<wgt id='1607'> +7.6485470e+01 </wgt>
<wgt id='1608'> +7.6877737e+01 </wgt>
<wgt id='1609'> +7.6365824e+01 </wgt>
<wgt id='1610'> +7.7046594e+01 </wgt>
<wgt id='1611'> +7.6952378e+01 </wgt>
<wgt id='1612'> +7.6822754e+01 </wgt>
<wgt id='1613'> +7.7151828e+01 </wgt>
<wgt id='1614'> +7.6845761e+01 </wgt>
<wgt id='1615'> +7.6870962e+01 </wgt>
<wgt id='1616'> +7.7091210e+01 </wgt>
<wgt id='1617'> +7.7317605e+01 </wgt>
<wgt id='1618'> +7.7027607e+01 </wgt>
<wgt id='1619'> +7.7407968e+01 </wgt>
<wgt id='1620'> +7.7145768e+01 </wgt>
<wgt id='1621'> +7.6954781e+01 </wgt>
<wgt id='1622'> +7.7148245e+01 </wgt>
<wgt id='1623'> +7.6928757e+01 </wgt>
<wgt id='1624'> +7.7135699e+01 </wgt>
<wgt id='1625'> +7.6940274e+01 </wgt>
<wgt id='1626'> +7.6964502e+01 </wgt>
<wgt id='1627'> +7.6883432e+01 </wgt>
<wgt id='1628'> +7.6994867e+01 </wgt>
<wgt id='1629'> +7.6931708e+01 </wgt>
<wgt id='1630'> +7.7038756e+01 </wgt>
<wgt id='1631'> +7.7035596e+01 </wgt>
<wgt id='1632'> +7.7183616e+01 </wgt>
<wgt id='1633'> +7.7108259e+01 </wgt>
<wgt id='1634'> +7.6853618e+01 </wgt>
<wgt id='1635'> +7.7083581e+01 </wgt>
<wgt id='1636'> +7.7006811e+01 </wgt>
<wgt id='1637'> +7.7056620e+01 </wgt>
<wgt id='1638'> +7.7065496e+01 </wgt>
<wgt id='1639'> +7.6968785e+01 </wgt>
<wgt id='1640'> +7.7060957e+01 </wgt>
<wgt id='1641'> +7.7103450e+01 </wgt>
<wgt id='1642'> +7.7010761e+01 </wgt>
<wgt id='1643'> +7.7059146e+01 </wgt>
<wgt id='1644'> +7.7023304e+01 </wgt>
<wgt id='1645'> +7.6995419e+01 </wgt>
<wgt id='1646'> +7.7099793e+01 </wgt>
<wgt id='1647'> +7.6970543e+01 </wgt>
<wgt id='1648'> +7.7018638e+01 </wgt>
<wgt id='1649'> +7.7042112e+01 </wgt>
<wgt id='1650'> +7.7024287e+01 </wgt>
<wgt id='1651'> +7.7052263e+01 </wgt>
<wgt id='1652'> +7.7077149e+01 </wgt>
<wgt id='1653'> +7.6996328e+01 </wgt>
<wgt id='1654'> +7.7026492e+01 </wgt>
<wgt id='1655'> +7.6993039e+01 </wgt>
<wgt id='1656'> +7.7017238e+01 </wgt>
<wgt id='1657'> +7.6998578e+01 </wgt>
<wgt id='1658'> +7.6987406e+01 </wgt>
<wgt id='1659'> +7.7075333e+01 </wgt>
<wgt id='1660'> +7.6984249e+01 </wgt>
<wgt id='1661'> +7.6995142e+01 </wgt>
<wgt id='1662'> +7.7028095e+01 </wgt>
<wgt id='1663'> +7.7055930e+01 </wgt>
<wgt id='1664'> +7.7020616e+01 </wgt>
<wgt id='1665'> +7.7061493e+01 </wgt>
<wgt id='1666'> +7.7040625e+01 </wgt>
<wgt id='1667'> +7.7031094e+01 </wgt>
<wgt id='1668'> +7.7004980e+01 </wgt>
<wgt id='1669'> +7.7018909e+01 </wgt>
<wgt id='1670'> +7.5398191e+01 </wgt>
<wgt id='1671'> +7.8608872e+01 </wgt>
<wgt id='1672'> +7.5919770e+01 </wgt>
<wgt id='1673'> +7.6628519e+01 </wgt>
<wgt id='1674'> +7.4271880e+01 </wgt>
<wgt id='1675'> +7.5876493e+01 </wgt>
<wgt id='1676'> +7.7091210e+01 </wgt>
<wgt id='1677'> +7.6055650e+01 </wgt>
<wgt id='1678'> +7.6506546e+01 </wgt>
<wgt id='1679'> +7.6086136e+01 </wgt>
<wgt id='1680'> +7.5999703e+01 </wgt>
<wgt id='1681'> +7.6274753e+01 </wgt>
<wgt id='1682'> +7.5997225e+01 </wgt>
<wgt id='1683'> +7.5399673e+01 </wgt>
<wgt id='1684'> +7.5588002e+01 </wgt>
<wgt id='1685'> +7.5830462e+01 </wgt>
<wgt id='1686'> +7.4819798e+01 </wgt>
<wgt id='1687'> +7.5839395e+01 </wgt>
<wgt id='1688'> +7.6164633e+01 </wgt>
<wgt id='1689'> +7.5261829e+01 </wgt>
<wgt id='1690'> +7.5797632e+01 </wgt>
<wgt id='1691'> +7.6091166e+01 </wgt>
<wgt id='1692'> +7.7806190e+01 </wgt>
<wgt id='1693'> +7.5930096e+01 </wgt>
<wgt id='1694'> +7.5990670e+01 </wgt>
<wgt id='1695'> +7.5946036e+01 </wgt>
<wgt id='1696'> +7.6116152e+01 </wgt>
<wgt id='1697'> +7.5845659e+01 </wgt>
<wgt id='1698'> +7.5876978e+01 </wgt>
<wgt id='1699'> +7.5801930e+01 </wgt>
<wgt id='1700'> +7.5993683e+01 </wgt>
<wgt id='1701'> +7.5690372e+01 </wgt>
<wgt id='1702'> +7.5895774e+01 </wgt>
<wgt id='1703'> +7.4215886e+01 </wgt>
<wgt id='1704'> +7.7344684e+01 </wgt>
<wgt id='1705'> +7.7028271e+01 </wgt>
<wgt id='1706'> +7.7235842e+01 </wgt>
<wgt id='1707'> +7.8540347e+01 </wgt>
<wgt id='1708'> +7.6903486e+01 </wgt>
<wgt id='1709'> +7.6156354e+01 </wgt>
<wgt id='1710'> +7.6511233e+01 </wgt>
<wgt id='1711'> +7.6984040e+01 </wgt>
<wgt id='1712'> +7.6920997e+01 </wgt>
<wgt id='1713'> +7.7120305e+01 </wgt>
<wgt id='1714'> +7.5984500e+01 </wgt>
<wgt id='1715'> +7.7031068e+01 </wgt>
<wgt id='1716'> +7.9475757e+01 </wgt>
<wgt id='1717'> +7.7030059e+01 </wgt>
<wgt id='1718'> +7.7309158e+01 </wgt>
<wgt id='1719'> +7.6990067e+01 </wgt>
<wgt id='1720'> +7.7252460e+01 </wgt>
<wgt id='1721'> +7.7134946e+01 </wgt>
<wgt id='1722'> +7.7175513e+01 </wgt>
<wgt id='1723'> +7.7090397e+01 </wgt>
<wgt id='1724'> +7.7103053e+01 </wgt>
<wgt id='1725'> +7.6636297e+01 </wgt>
<wgt id='1726'> +7.6884691e+01 </wgt>
<wgt id='1727'> +7.7301093e+01 </wgt>
<wgt id='1728'> +7.7048100e+01 </wgt>
<wgt id='1729'> +7.6868022e+01 </wgt>
<wgt id='1730'> +7.7103122e+01 </wgt>
<wgt id='1731'> +7.6893214e+01 </wgt>
<wgt id='1732'> +7.6922330e+01 </wgt>
<wgt id='1733'> +7.6838834e+01 </wgt>
<wgt id='1734'> +7.7066373e+01 </wgt>
<wgt id='1735'> +7.6961226e+01 </wgt>
<wgt id='1736'> +7.5398191e+01 </wgt>
<wgt id='1737'> +7.8608872e+01 </wgt>
<wgt id='1738'> +6.5898592e+01 </wgt>
<wgt id='1739'> +6.6079508e+01 </wgt>
<wgt id='1740'> +6.5718808e+01 </wgt>
<wgt id='1741'> +6.5743918e+01 </wgt>
<wgt id='1742'> +6.6053147e+01 </wgt>
<wgt id='1743'> +6.6049382e+01 </wgt>
<wgt id='1744'> +6.5748112e+01 </wgt>
<wgt id='1745'> +6.5618806e+01 </wgt>
<wgt id='1746'> +6.6168859e+01 </wgt>
<wgt id='1747'> +6.6460396e+01 </wgt>
<wgt id='1748'> +6.5337986e+01 </wgt>
<wgt id='1749'> +6.6051023e+01 </wgt>
<wgt id='1750'> +6.5758609e+01 </wgt>
<wgt id='1751'> +6.5906794e+01 </wgt>
<wgt id='1752'> +6.5889475e+01 </wgt>
<wgt id='1753'> +6.5672816e+01 </wgt>
<wgt id='1754'> +6.6041192e+01 </wgt>
<wgt id='1755'> +6.5631026e+01 </wgt>
<wgt id='1756'> +6.6171264e+01 </wgt>
<wgt id='1757'> +6.5968425e+01 </wgt>
<wgt id='1758'> +6.5800920e+01 </wgt>
<wgt id='1759'> +6.5388300e+01 </wgt>
<wgt id='1760'> +6.6362296e+01 </wgt>
<wgt id='1761'> +6.6924142e+01 </wgt>
<wgt id='1762'> +6.4699673e+01 </wgt>
<wgt id='1763'> +6.5985513e+01 </wgt>
<wgt id='1764'> +6.5869111e+01 </wgt>
<wgt id='1765'> +6.6261335e+01 </wgt>
<wgt id='1766'> +6.5558619e+01 </wgt>
<wgt id='1767'> +6.5898592e+01 </wgt>
<wgt id='1768'> +6.9881577e+01 </wgt>
<wgt id='1769'> +6.1431314e+01 </wgt>
<wgt id='1770'> +7.4823496e+01 </wgt>
<wgt id='1771'> +7.0232049e+01 </wgt>
<wgt id='1772'> +6.5885618e+01 </wgt>
<wgt id='1773'> +6.6262002e+01 </wgt>
<wgt id='1774'> +6.5938776e+01 </wgt>
<wgt id='1775'> +6.5823769e+01 </wgt>
<wgt id='1776'> +6.5199469e+01 </wgt>
<wgt id='1777'> +6.6497051e+01 </wgt>
<wgt id='1778'> +6.5100488e+01 </wgt>
<wgt id='1779'> +6.7060704e+01 </wgt>
<wgt id='1780'> +6.2135008e+01 </wgt>
<wgt id='1781'> +6.6796039e+01 </wgt>
<wgt id='1782'> +6.6972369e+01 </wgt>
<wgt id='1783'> +6.6614225e+01 </wgt>
<wgt id='1784'> +6.6579028e+01 </wgt>
<wgt id='1785'> +6.7007123e+01 </wgt>
<wgt id='1786'> +6.6846930e+01 </wgt>
<wgt id='1787'> +6.6738801e+01 </wgt>
<wgt id='1788'> +6.6333678e+01 </wgt>
<wgt id='1789'> +6.7238716e+01 </wgt>
<wgt id='1790'> +6.7147351e+01 </wgt>
<wgt id='1791'> +6.6437441e+01 </wgt>
<wgt id='1792'> +6.7071442e+01 </wgt>
<wgt id='1793'> +6.6518742e+01 </wgt>
<wgt id='1794'> +6.6636712e+01 </wgt>
<wgt id='1795'> +6.6947010e+01 </wgt>
<wgt id='1796'> +6.6691292e+01 </wgt>
<wgt id='1797'> +6.6819201e+01 </wgt>
<wgt id='1798'> +6.7014142e+01 </wgt>
<wgt id='1799'> +6.6562499e+01 </wgt>
<wgt id='1800'> +6.6799772e+01 </wgt>
<wgt id='1801'> +6.6789406e+01 </wgt>
<wgt id='1802'> +6.7066500e+01 </wgt>
<wgt id='1803'> +6.6454936e+01 </wgt>
<wgt id='1804'> +6.7970406e+01 </wgt>
<wgt id='1805'> +6.5657986e+01 </wgt>
<wgt id='1806'> +6.8803856e+01 </wgt>
<wgt id='1807'> +6.4845097e+01 </wgt>
<wgt id='1808'> +6.8453071e+01 </wgt>
<wgt id='1809'> +6.5282951e+01 </wgt>
<wgt id='1810'> +6.6776599e+01 </wgt>
<wgt id='1811'> +7.1492467e+01 </wgt>
<wgt id='1812'> +6.1962700e+01 </wgt>
<wgt id='1813'> +7.6344803e+01 </wgt>
<wgt id='1814'> +7.0134028e+01 </wgt>
<wgt id='1815'> +6.9715704e+01 </wgt>
<wgt id='1816'> +6.6439659e+01 </wgt>
<wgt id='1817'> +6.6701835e+01 </wgt>
<wgt id='1818'> +6.6280731e+01 </wgt>
<wgt id='1819'> +6.6944239e+01 </wgt>
<wgt id='1820'> +7.0313250e+01 </wgt>
<wgt id='1821'> +6.7929583e+01 </wgt>
<wgt id='1822'> +6.5555557e+01 </wgt>
<wgt id='1823'> +6.5993460e+01 </wgt>
<wgt id='1824'> +7.5717317e+01 </wgt>
<wgt id='1825'> +7.5674207e+01 </wgt>
<wgt id='1826'> +7.5631190e+01 </wgt>
<wgt id='1827'> +7.5588094e+01 </wgt>
<wgt id='1828'> +7.5545121e+01 </wgt>
<wgt id='1829'> +7.5502078e+01 </wgt>
<wgt id='1830'> +7.5459006e+01 </wgt>
<wgt id='1831'> +7.5416066e+01 </wgt>
<wgt id='1832'> +7.5373088e+01 </wgt>
<wgt id='1833'> +7.5330182e+01 </wgt>
<wgt id='1834'> +7.5287122e+01 </wgt>
<wgt id='1835'> +7.5244241e+01 </wgt>
<wgt id='1836'> +7.5201315e+01 </wgt>
<wgt id='1837'> +7.5158290e+01 </wgt>
<wgt id='1838'> +7.5115403e+01 </wgt>
<wgt id='1839'> +7.5072501e+01 </wgt>
<wgt id='1840'> +7.5029686e+01 </wgt>
<wgt id='1841'> +7.4986756e+01 </wgt>
<wgt id='1842'> +7.4943917e+01 </wgt>
<wgt id='1843'> +7.4900987e+01 </wgt>
<wgt id='1844'> +7.4858157e+01 </wgt>
<wgt id='1845'> +7.4815315e+01 </wgt>
<wgt id='1846'> +7.4772508e+01 </wgt>
<wgt id='1847'> +7.4729709e+01 </wgt>
<wgt id='1848'> +7.4686826e+01 </wgt>
<wgt id='1849'> +7.4644110e+01 </wgt>
<wgt id='1850'> +7.4601328e+01 </wgt>
<wgt id='1851'> +7.4558525e+01 </wgt>
<wgt id='1852'> +7.4515783e+01 </wgt>
<wgt id='1853'> +7.4473003e+01 </wgt>
<wgt id='1854'> +7.4430343e+01 </wgt>
<wgt id='1855'> +7.6752051e+01 </wgt>
<wgt id='1856'> +7.6755793e+01 </wgt>
<wgt id='1857'> +7.6621733e+01 </wgt>
<wgt id='1858'> +7.6929741e+01 </wgt>
<wgt id='1859'> +7.7458073e+01 </wgt>
<wgt id='1860'> +7.7420084e+01 </wgt>
<wgt id='1861'> +7.6983330e+01 </wgt>
<wgt id='1862'> +7.7073830e+01 </wgt>
<wgt id='1863'> +7.6822710e+01 </wgt>
<wgt id='1864'> +7.6891414e+01 </wgt>
<wgt id='1865'> +7.6339684e+01 </wgt>
<wgt id='1866'> +7.7746013e+01 </wgt>
<wgt id='1867'> +7.6784332e+01 </wgt>
<wgt id='1868'> +7.6868673e+01 </wgt>
<wgt id='1869'> +7.6635316e+01 </wgt>
<wgt id='1870'> +7.7692003e+01 </wgt>
<wgt id='1871'> +7.6505652e+01 </wgt>
<wgt id='1872'> +7.6544317e+01 </wgt>
<wgt id='1873'> +7.7593494e+01 </wgt>
<wgt id='1874'> +7.5507806e+01 </wgt>
<wgt id='1875'> +7.6545842e+01 </wgt>
<wgt id='1876'> +7.7033812e+01 </wgt>
<wgt id='1877'> +7.5430871e+01 </wgt>
<wgt id='1878'> +7.7073716e+01 </wgt>
<wgt id='1879'> +7.7185767e+01 </wgt>
<wgt id='1880'> +7.6582458e+01 </wgt>
<wgt id='1881'> +7.6373921e+01 </wgt>
<wgt id='1882'> +7.6800801e+01 </wgt>
<wgt id='1883'> +7.6815517e+01 </wgt>
<wgt id='1884'> +7.6349676e+01 </wgt>
<wgt id='1885'> +7.6442317e+01 </wgt>
<wgt id='1886'> +7.6655081e+01 </wgt>
<wgt id='1887'> +7.6319467e+01 </wgt>
<wgt id='1888'> +7.6213547e+01 </wgt>
<wgt id='1889'> +7.6033590e+01 </wgt>
<wgt id='1890'> +7.7635632e+01 </wgt>
<wgt id='1891'> +7.6430908e+01 </wgt>
<wgt id='1892'> +7.6874138e+01 </wgt>
<wgt id='1893'> +7.6209911e+01 </wgt>
<wgt id='1894'> +7.6597549e+01 </wgt>
<wgt id='1895'> +7.6093208e+01 </wgt>
<wgt id='1896'> +7.6768675e+01 </wgt>
<wgt id='1897'> +7.6675444e+01 </wgt>
<wgt id='1898'> +7.6555594e+01 </wgt>
<wgt id='1899'> +7.6874728e+01 </wgt>
<wgt id='1900'> +7.6570394e+01 </wgt>
<wgt id='1901'> +7.6600847e+01 </wgt>
<wgt id='1902'> +7.6813026e+01 </wgt>
<wgt id='1903'> +7.7044487e+01 </wgt>
<wgt id='1904'> +7.6751614e+01 </wgt>
<wgt id='1905'> +7.7133303e+01 </wgt>
<wgt id='1906'> +7.6869275e+01 </wgt>
<wgt id='1907'> +7.6679538e+01 </wgt>
<wgt id='1908'> +7.6872219e+01 </wgt>
<wgt id='1909'> +7.6656268e+01 </wgt>
<wgt id='1910'> +7.6862042e+01 </wgt>
<wgt id='1911'> +7.6660336e+01 </wgt>
<wgt id='1912'> +7.6689809e+01 </wgt>
<wgt id='1913'> +7.6612419e+01 </wgt>
<wgt id='1914'> +7.6722450e+01 </wgt>
<wgt id='1915'> +7.6659386e+01 </wgt>
<wgt id='1916'> +7.6764280e+01 </wgt>
<wgt id='1917'> +7.6760257e+01 </wgt>
<wgt id='1918'> +7.6906367e+01 </wgt>
<wgt id='1919'> +7.6835232e+01 </wgt>
<wgt id='1920'> +7.6577804e+01 </wgt>
<wgt id='1921'> +7.6807337e+01 </wgt>
<wgt id='1922'> +7.6729214e+01 </wgt>
<wgt id='1923'> +7.6781768e+01 </wgt>
<wgt id='1924'> +7.6787298e+01 </wgt>
<wgt id='1925'> +7.6693180e+01 </wgt>
<wgt id='1926'> +7.6786877e+01 </wgt>
<wgt id='1927'> +7.6826523e+01 </wgt>
<wgt id='1928'> +7.6734196e+01 </wgt>
<wgt id='1929'> +7.6783957e+01 </wgt>
<wgt id='1930'> +7.6748888e+01 </wgt>
<wgt id='1931'> +7.6723284e+01 </wgt>
<wgt id='1932'> +7.6825049e+01 </wgt>
<wgt id='1933'> +7.6697223e+01 </wgt>
<wgt id='1934'> +7.6743498e+01 </wgt>
<wgt id='1935'> +7.6764401e+01 </wgt>
<wgt id='1936'> +7.6751682e+01 </wgt>
<wgt id='1937'> +7.6778367e+01 </wgt>
<wgt id='1938'> +7.6801725e+01 </wgt>
<wgt id='1939'> +7.6720242e+01 </wgt>
<wgt id='1940'> +7.6752174e+01 </wgt>
<wgt id='1941'> +7.6720923e+01 </wgt>
<wgt id='1942'> +7.6740934e+01 </wgt>
<wgt id='1943'> +7.6722263e+01 </wgt>
<wgt id='1944'> +7.6710239e+01 </wgt>
<wgt id='1945'> +7.6799363e+01 </wgt>
<wgt id='1946'> +7.6707352e+01 </wgt>
<wgt id='1947'> +7.6718117e+01 </wgt>
<wgt id='1948'> +7.6753684e+01 </wgt>
<wgt id='1949'> +7.6778140e+01 </wgt>
<wgt id='1950'> +7.6745466e+01 </wgt>
<wgt id='1951'> +7.6787338e+01 </wgt>
<wgt id='1952'> +7.6765792e+01 </wgt>
<wgt id='1953'> +7.6755469e+01 </wgt>
<wgt id='1954'> +7.6730823e+01 </wgt>
<wgt id='1955'> +7.6744383e+01 </wgt>
<wgt id='1956'> +7.6751844e+01 </wgt>
<wgt id='1957'> +7.6753146e+01 </wgt>
<wgt id='1958'> +7.6752261e+01 </wgt>
<wgt id='1959'> +7.6752299e+01 </wgt>
<wgt id='1960'> +7.6752666e+01 </wgt>
<wgt id='1961'> +7.6752140e+01 </wgt>
<wgt id='1962'> +7.6753363e+01 </wgt>
</rwgt>
</event>
<event npLO=" -1 " npNLO=" 1 ">
 7      1 -1.5146096e+02 1.01383080e+01 7.54677110e-03 1.20906300e-01
        2 -1    0    0  502    0 +0.0000000000e+00 +0.0000000000e+00 +7.4084290000e+02 7.4084290000e+02 0.0000000000e+00 0.0000e+00 9.0000e+00
       21 -1    0    0  501  502 +0.0000000000e+00 +0.0000000000e+00 -7.3492536000e+00 7.3492536000e+00 0.0000000000e+00 0.0000e+00 9.0000e+00
       23  2    1    2    0    0 -2.5387127000e+01 +2.4658090000e+01 +6.4104202000e+02 6.4881136000e+02 9.3641799000e+01 0.0000e+00 0.0000e+00
       11  1    3    3    0    0 -4.7409435000e+01 +3.5808590000e+01 +5.7898254000e+02 5.8202293000e+02 0.0000000000e+00 0.0000e+00 9.0000e+00
      -11  1    3    3    0    0 +2.2022308000e+01 -1.1150500000e+01 +6.2059473000e+01 6.6788426000e+01 0.0000000000e+00 0.0000e+00 9.0000e+00
       22  1    1    2    0    0 +2.1068356000e+01 -1.5485658000e+01 +7.0772506000e+01 7.5448186000e+01 0.0000000000e+00 0.0000e+00 9.0000e+00
        2  1    1    2  501    0 +4.3187705000e+00 -9.1724319000e+00 +2.1679128000e+01 2.3932611000e+01 0.0000000000e+00 0.0000e+00 9.0000e+00
#aMCatNLO 1  0  0  6  2 0.94666609E+00 0.00000000E+00 -9  7  0 0.00000000E+00 0.00000000E+00 0.00000000E+00 0.00000000E+00 0.00000000E+00
<rwgt>
<wgt id='1001'> -1.5146000e+02 </wgt>
<wgt id='1002'> -1.5146000e+02 </wgt>
<wgt id='1003'> -1.4381000e+02 </wgt>
<wgt id='1004'> -1.4993000e+02 </wgt>
<wgt id='1005'> -1.5429000e+02 </wgt>
<wgt id='1006'> -1.5186000e+02 </wgt>
<wgt id='1007'> -1.4736000e+02 </wgt>
<wgt id='1008'> -1.5289000e+02 </wgt>
<wgt id='1009'> -1.5086000e+02 </wgt>
<wgt id='1010'> -1.4852000e+02 </wgt>
<wgt id='1011'> -1.5097000e+02 </wgt>
<wgt id='1012'> -1.5387000e+02 </wgt>
<wgt id='1013'> -1.5593000e+02 </wgt>
<wgt id='1014'> -1.5309000e+02 </wgt>
<wgt id='1015'> -1.5378000e+02 </wgt>
<wgt id='1016'> -1.5324000e+02 </wgt>
<wgt id='1017'> -1.5095000e+02 </wgt>
<wgt id='1018'> -1.4850000e+02 </wgt>
<wgt id='1019'> -1.4889000e+02 </wgt>
<wgt id='1020'> -1.4584000e+02 </wgt>
<wgt id='1021'> -1.5067000e+02 </wgt>
<wgt id='1022'> -1.4688000e+02 </wgt>
<wgt id='1023'> -1.5500000e+02 </wgt>
<wgt id='1024'> -1.5163000e+02 </wgt>
<wgt id='1025'> -1.5812000e+02 </wgt>
<wgt id='1026'> -1.5239000e+02 </wgt>
<wgt id='1027'> -1.5224000e+02 </wgt>
<wgt id='1028'> -1.5044000e+02 </wgt>
<wgt id='1029'> -1.4597000e+02 </wgt>
<wgt id='1030'> -1.5195000e+02 </wgt>
<wgt id='1031'> -1.4885000e+02 </wgt>
<wgt id='1032'> -1.5161000e+02 </wgt>
<wgt id='1033'> -1.5271000e+02 </wgt>
<wgt id='1034'> -1.5312000e+02 </wgt>
<wgt id='1035'> -1.5123000e+02 </wgt>
<wgt id='1036'> -1.5551000e+02 </wgt>
<wgt id='1037'> -1.5339000e+02 </wgt>
<wgt id='1038'> -1.5142000e+02 </wgt>
<wgt id='1039'> -1.4910000e+02 </wgt>
<wgt id='1040'> -1.4953000e+02 </wgt>
<wgt id='1041'> -1.4831000e+02 </wgt>
<wgt id='1042'> -1.5231000e+02 </wgt>
<wgt id='1043'> -1.5238000e+02 </wgt>
<wgt id='1044'> -1.5377000e+02 </wgt>
<wgt id='1045'> -1.5396000e+02 </wgt>
<wgt id='1046'> -1.5214000e+02 </wgt>
<wgt id='1047'> -1.5389000e+02 </wgt>
<wgt id='1048'> -1.5347000e+02 </wgt>
<wgt id='1049'> -1.4977000e+02 </wgt>
<wgt id='1050'> -1.4989000e+02 </wgt>
<wgt id='1051'> -1.4987000e+02 </wgt>
<wgt id='1052'> -1.5275000e+02 </wgt>
<wgt id='1053'> -1.5369000e+02 </wgt>
<wgt id='1054'> -1.5265000e+02 </wgt>
<wgt id='1055'> -1.5484000e+02 </wgt>
<wgt id='1056'> -1.5220000e+02 </wgt>
<wgt id='1057'> -1.5281000e+02 </wgt>
<wgt id='1058'> -1.4960000e+02 </wgt>
<wgt id='1059'> -1.5170000e+02 </wgt>
<wgt id='1060'> -1.5408000e+02 </wgt>
<wgt id='1061'> -1.4956000e+02 </wgt>
<wgt id='1062'> -1.5156000e+02 </wgt>
<wgt id='1063'> -1.5069000e+02 </wgt>
<wgt id='1064'> -1.5106000e+02 </wgt>
<wgt id='1065'> -1.5585000e+02 </wgt>
<wgt id='1066'> -1.4511000e+02 </wgt>
<wgt id='1067'> -1.5324000e+02 </wgt>
<wgt id='1068'> -1.5185000e+02 </wgt>
<wgt id='1069'> -1.5347000e+02 </wgt>
<wgt id='1070'> -1.5254000e+02 </wgt>
<wgt id='1071'> -1.5081000e+02 </wgt>
<wgt id='1072'> -1.5074000e+02 </wgt>
<wgt id='1073'> -1.5367000e+02 </wgt>
<wgt id='1074'> -1.5335000e+02 </wgt>
<wgt id='1075'> -1.4782000e+02 </wgt>
<wgt id='1076'> -1.5695000e+02 </wgt>
<wgt id='1077'> -1.5034000e+02 </wgt>
<wgt id='1078'> -1.5742000e+02 </wgt>
<wgt id='1079'> -1.5374000e+02 </wgt>
<wgt id='1080'> -1.5376000e+02 </wgt>
<wgt id='1081'> -1.5017000e+02 </wgt>
<wgt id='1082'> -1.5094000e+02 </wgt>
<wgt id='1083'> -1.5445000e+02 </wgt>
<wgt id='1084'> -1.5284000e+02 </wgt>
<wgt id='1085'> -1.4690000e+02 </wgt>
<wgt id='1086'> -1.5095000e+02 </wgt>
<wgt id='1087'> -1.4947000e+02 </wgt>
<wgt id='1088'> -1.4999000e+02 </wgt>
<wgt id='1089'> -1.5415000e+02 </wgt>
<wgt id='1090'> -1.5257000e+02 </wgt>
<wgt id='1091'> -1.4848000e+02 </wgt>
<wgt id='1092'> -1.5138000e+02 </wgt>
<wgt id='1093'> -1.4962000e+02 </wgt>
<wgt id='1094'> -1.4976000e+02 </wgt>
<wgt id='1095'> -1.4813000e+02 </wgt>
<wgt id='1096'> -1.5327000e+02 </wgt>
<wgt id='1097'> -1.4765000e+02 </wgt>
<wgt id='1098'> -1.5156000e+02 </wgt>
<wgt id='1099'> -1.4876000e+02 </wgt>
<wgt id='1100'> -1.5460000e+02 </wgt>
<wgt id='1101'> -1.5060000e+02 </wgt>
<wgt id='1102'> -1.4611000e+02 </wgt>
<wgt id='1103'> -1.4881000e+02 </wgt>
<wgt id='1104'> -1.5383000e+02 </wgt>
<wgt id='1105'> -1.5146096e+02 </wgt>
<wgt id='1106'> -6.0601778e+01 </wgt>
<wgt id='1107'> -9.6907989e+01 </wgt>
<wgt id='1108'> -8.2698508e+01 </wgt>
<wgt id='1109'> -6.6177238e+01 </wgt>
<wgt id='1110'> -1.0582544e+02 </wgt>
<wgt id='1111'> -6.7324922e+01 </wgt>
<wgt id='1112'> -5.3875859e+01 </wgt>
<wgt id='1113'> -8.6151169e+01 </wgt>
<wgt id='1114'> -7.7967625e+01 </wgt>
<wgt id='1115'> -7.7711807e+01 </wgt>
<wgt id='1116'> -7.9787490e+01 </wgt>
<wgt id='1117'> -7.6970114e+01 </wgt>
<wgt id='1118'> -7.5875615e+01 </wgt>
<wgt id='1119'> -7.6848899e+01 </wgt>
<wgt id='1120'> -7.5694352e+01 </wgt>
<wgt id='1121'> -7.9823500e+01 </wgt>
<wgt id='1122'> -7.9378624e+01 </wgt>
<wgt id='1123'> -7.7958082e+01 </wgt>
<wgt id='1124'> -7.4574021e+01 </wgt>
<wgt id='1125'> -7.7440290e+01 </wgt>
<wgt id='1126'> -7.7071667e+01 </wgt>
<wgt id='1127'> -7.8362515e+01 </wgt>
<wgt id='1128'> -7.9163309e+01 </wgt>
<wgt id='1129'> -7.8622711e+01 </wgt>
<wgt id='1130'> -7.8123677e+01 </wgt>
<wgt id='1131'> -7.7183018e+01 </wgt>
<wgt id='1132'> -7.8081353e+01 </wgt>
<wgt id='1133'> -7.9265244e+01 </wgt>
<wgt id='1134'> -7.7879356e+01 </wgt>
<wgt id='1135'> -7.7626912e+01 </wgt>
<wgt id='1136'> -7.9390513e+01 </wgt>
<wgt id='1137'> -7.9756942e+01 </wgt>
<wgt id='1138'> -7.7943563e+01 </wgt>
<wgt id='1139'> -7.9605322e+01 </wgt>
<wgt id='1140'> -8.0169683e+01 </wgt>
<wgt id='1141'> -7.5950437e+01 </wgt>
<wgt id='1142'> -7.8296890e+01 </wgt>
<wgt id='1143'> -7.7245406e+01 </wgt>
<wgt id='1144'> -7.8009993e+01 </wgt>
<wgt id='1145'> -7.7983038e+01 </wgt>
<wgt id='1146'> -7.7198901e+01 </wgt>
<wgt id='1147'> -7.7852848e+01 </wgt>
<wgt id='1148'> -7.6923068e+01 </wgt>
<wgt id='1149'> -7.5958782e+01 </wgt>
<wgt id='1150'> -7.8533380e+01 </wgt>
<wgt id='1151'> -7.8785487e+01 </wgt>
<wgt id='1152'> -7.6769158e+01 </wgt>
<wgt id='1153'> -7.8080800e+01 </wgt>
<wgt id='1154'> -7.8729503e+01 </wgt>
<wgt id='1155'> -7.7851180e+01 </wgt>
<wgt id='1156'> -7.8222898e+01 </wgt>
<wgt id='1157'> -7.6849675e+01 </wgt>
<wgt id='1158'> -7.6647032e+01 </wgt>
<wgt id='1159'> -7.8463742e+01 </wgt>
<wgt id='1160'> -7.7900838e+01 </wgt>
<wgt id='1161'> -7.8141965e+01 </wgt>
<wgt id='1162'> -8.0573869e+01 </wgt>
<wgt id='1163'> -7.8950910e+01 </wgt>
<wgt id='1164'> -7.6979241e+01 </wgt>
<wgt id='1165'> -7.6973510e+01 </wgt>
<wgt id='1166'> -7.9004759e+01 </wgt>
<wgt id='1167'> -7.7766088e+01 </wgt>
<wgt id='1168'> -7.7876683e+01 </wgt>
<wgt id='1169'> -7.9975857e+01 </wgt>
<wgt id='1170'> -7.7907415e+01 </wgt>
<wgt id='1171'> -7.9681962e+01 </wgt>
<wgt id='1172'> -7.9607830e+01 </wgt>
<wgt id='1173'> -7.7611481e+01 </wgt>
<wgt id='1174'> -7.9410779e+01 </wgt>
<wgt id='1175'> -7.7503072e+01 </wgt>
<wgt id='1176'> -7.8098077e+01 </wgt>
<wgt id='1177'> -7.6842840e+01 </wgt>
<wgt id='1178'> -7.9115416e+01 </wgt>
<wgt id='1179'> -7.8428055e+01 </wgt>
<wgt id='1180'> -8.0018869e+01 </wgt>
<wgt id='1181'> -7.8291274e+01 </wgt>
<wgt id='1182'> -7.8503787e+01 </wgt>
<wgt id='1183'> -7.8687438e+01 </wgt>
<wgt id='1184'> -7.7831458e+01 </wgt>
<wgt id='1185'> -7.7401489e+01 </wgt>
<wgt id='1186'> -7.8705133e+01 </wgt>
<wgt id='1187'> -7.7308481e+01 </wgt>
<wgt id='1188'> -7.7278511e+01 </wgt>
<wgt id='1189'> -7.7441098e+01 </wgt>
<wgt id='1190'> -7.7656375e+01 </wgt>
<wgt id='1191'> -7.7467018e+01 </wgt>
<wgt id='1192'> -7.8527632e+01 </wgt>
<wgt id='1193'> -7.7502102e+01 </wgt>
<wgt id='1194'> -7.6116775e+01 </wgt>
<wgt id='1195'> -7.7716686e+01 </wgt>
<wgt id='1196'> -7.8123677e+01 </wgt>
<wgt id='1197'> -7.5113389e+01 </wgt>
<wgt id='1198'> -7.8336328e+01 </wgt>
<wgt id='1199'> -7.8410909e+01 </wgt>
<wgt id='1200'> -7.8114989e+01 </wgt>
<wgt id='1201'> -7.7721196e+01 </wgt>
<wgt id='1202'> -7.5490624e+01 </wgt>
<wgt id='1203'> -7.4550570e+01 </wgt>
<wgt id='1204'> -7.7669573e+01 </wgt>
<wgt id='1205'> -7.8152541e+01 </wgt>
<wgt id='1206'> -7.7532197e+01 </wgt>
<wgt id='1207'> -7.7548687e+01 </wgt>
<wgt id='1208'> -7.7920408e+01 </wgt>
<wgt id='1209'> -7.8179319e+01 </wgt>
<wgt id='1210'> -7.8813417e+01 </wgt>
<wgt id='1211'> -7.7302627e+01 </wgt>
<wgt id='1212'> -7.8315163e+01 </wgt>
<wgt id='1213'> -8.0592097e+01 </wgt>
<wgt id='1214'> -7.9446619e+01 </wgt>
<wgt id='1215'> -7.5863764e+01 </wgt>
<wgt id='1216'> -7.8230518e+01 </wgt>
<wgt id='1217'> -7.8301251e+01 </wgt>
<wgt id='1218'> -7.8171857e+01 </wgt>
<wgt id='1219'> -7.8195331e+01 </wgt>
<wgt id='1220'> -7.8074913e+01 </wgt>
<wgt id='1221'> -7.8102547e+01 </wgt>
<wgt id='1222'> -7.8275273e+01 </wgt>
<wgt id='1223'> -7.7995613e+01 </wgt>
<wgt id='1224'> -7.8196264e+01 </wgt>
<wgt id='1225'> -7.7908907e+01 </wgt>
<wgt id='1226'> -7.8254008e+01 </wgt>
<wgt id='1227'> -7.8344076e+01 </wgt>
<wgt id='1228'> -7.8170912e+01 </wgt>
<wgt id='1229'> -7.8069817e+01 </wgt>
<wgt id='1230'> -7.8300519e+01 </wgt>
<wgt id='1231'> -7.8211248e+01 </wgt>
<wgt id='1232'> -7.8121438e+01 </wgt>
<wgt id='1233'> -7.8264853e+01 </wgt>
<wgt id='1234'> -7.8173310e+01 </wgt>
<wgt id='1235'> -7.8131572e+01 </wgt>
<wgt id='1236'> -7.8054192e+01 </wgt>
<wgt id='1237'> -7.8301295e+01 </wgt>
<wgt id='1238'> -7.8316532e+01 </wgt>
<wgt id='1239'> -7.8458681e+01 </wgt>
<wgt id='1240'> -7.8249461e+01 </wgt>
<wgt id='1241'> -7.8035853e+01 </wgt>
<wgt id='1242'> -7.8181512e+01 </wgt>
<wgt id='1243'> -7.8163653e+01 </wgt>
<wgt id='1244'> -7.8399806e+01 </wgt>
<wgt id='1245'> -7.8521242e+01 </wgt>
<wgt id='1246'> -7.7630695e+01 </wgt>
<wgt id='1247'> -7.7847711e+01 </wgt>
<wgt id='1248'> -7.8385389e+01 </wgt>
<wgt id='1249'> -7.8315923e+01 </wgt>
<wgt id='1250'> -7.8205598e+01 </wgt>
<wgt id='1251'> -7.8347509e+01 </wgt>
<wgt id='1252'> -7.8315646e+01 </wgt>
<wgt id='1253'> -7.8058424e+01 </wgt>
<wgt id='1254'> -7.8283616e+01 </wgt>
<wgt id='1255'> -7.8245920e+01 </wgt>
<wgt id='1256'> -7.8195786e+01 </wgt>
<wgt id='1257'> -7.8307997e+01 </wgt>
<wgt id='1258'> -7.8293694e+01 </wgt>
<wgt id='1259'> -7.8130860e+01 </wgt>
<wgt id='1260'> -7.8254627e+01 </wgt>
<wgt id='1261'> -7.8296206e+01 </wgt>
<wgt id='1262'> -7.8199497e+01 </wgt>
<wgt id='1263'> -7.8224770e+01 </wgt>
<wgt id='1264'> -7.8350452e+01 </wgt>
<wgt id='1265'> -7.8207897e+01 </wgt>
<wgt id='1266'> -7.8171132e+01 </wgt>
<wgt id='1267'> -7.8250030e+01 </wgt>
<wgt id='1268'> -7.8274578e+01 </wgt>
<wgt id='1269'> -7.8115260e+01 </wgt>
<wgt id='1270'> -7.8192026e+01 </wgt>
<wgt id='1271'> -7.8223228e+01 </wgt>
<wgt id='1272'> -7.8124098e+01 </wgt>
<wgt id='1273'> -7.8285682e+01 </wgt>
<wgt id='1274'> -7.8150247e+01 </wgt>
<wgt id='1275'> -7.8255993e+01 </wgt>
<wgt id='1276'> -7.8204700e+01 </wgt>
<wgt id='1277'> -7.8222947e+01 </wgt>
<wgt id='1278'> -7.8127849e+01 </wgt>
<wgt id='1279'> -7.8282111e+01 </wgt>
<wgt id='1280'> -7.8160056e+01 </wgt>
<wgt id='1281'> -7.8285028e+01 </wgt>
<wgt id='1282'> -7.8226837e+01 </wgt>
<wgt id='1283'> -7.8103455e+01 </wgt>
<wgt id='1284'> -7.8318461e+01 </wgt>
<wgt id='1285'> -7.8161433e+01 </wgt>
<wgt id='1286'> -7.8213024e+01 </wgt>
<wgt id='1287'> -7.8203152e+01 </wgt>
<wgt id='1288'> -7.8243097e+01 </wgt>
<wgt id='1289'> -7.8237722e+01 </wgt>
<wgt id='1290'> -7.8337485e+01 </wgt>
<wgt id='1291'> -7.8179650e+01 </wgt>
<wgt id='1292'> -7.8259867e+01 </wgt>
<wgt id='1293'> -7.8215015e+01 </wgt>
<wgt id='1294'> -7.8243677e+01 </wgt>
<wgt id='1295'> -7.8207601e+01 </wgt>
<wgt id='1296'> -7.8248073e+01 </wgt>
<wgt id='1297'> -7.8321087e+01 </wgt>
<wgt id='1298'> -7.8181665e+01 </wgt>
<wgt id='1299'> -7.8253093e+01 </wgt>
<wgt id='1300'> -7.8164881e+01 </wgt>
<wgt id='1301'> -7.8196465e+01 </wgt>
<wgt id='1302'> -7.8239440e+01 </wgt>
<wgt id='1303'> -7.8268522e+01 </wgt>
<wgt id='1304'> -7.8182105e+01 </wgt>
<wgt id='1305'> -7.8193564e+01 </wgt>
<wgt id='1306'> -7.8224609e+01 </wgt>
<wgt id='1307'> -7.8269368e+01 </wgt>
<wgt id='1308'> -7.8244142e+01 </wgt>
<wgt id='1309'> -7.8209219e+01 </wgt>
<wgt id='1310'> -7.8247317e+01 </wgt>
<wgt id='1311'> -7.8259769e+01 </wgt>
<wgt id='1312'> -7.8163787e+01 </wgt>
<wgt id='1313'> -7.8235256e+01 </wgt>
<wgt id='1314'> -7.8258500e+01 </wgt>
<wgt id='1315'> -7.8184834e+01 </wgt>
<wgt id='1316'> -7.8216640e+01 </wgt>
<wgt id='1317'> -7.6002842e+01 </wgt>
<wgt id='1318'> -8.0694583e+01 </wgt>
<wgt id='1319'> -8.6955257e+01 </wgt>
<wgt id='1320'> -7.9265091e+01 </wgt>
<wgt id='1321'> -7.9410330e+01 </wgt>
<wgt id='1322'> -7.9496977e+01 </wgt>
<wgt id='1323'> -7.9599072e+01 </wgt>
<wgt id='1324'> -8.0003960e+01 </wgt>
<wgt id='1325'> -7.9104619e+01 </wgt>
<wgt id='1326'> -7.9649707e+01 </wgt>
<wgt id='1327'> -7.8359153e+01 </wgt>
<wgt id='1328'> -8.0541054e+01 </wgt>
<wgt id='1329'> -7.7963816e+01 </wgt>
<wgt id='1330'> -8.0894419e+01 </wgt>
<wgt id='1331'> -8.0064616e+01 </wgt>
<wgt id='1332'> -7.8934779e+01 </wgt>
<wgt id='1333'> -7.7277924e+01 </wgt>
<wgt id='1334'> -8.0273015e+01 </wgt>
<wgt id='1335'> -7.9030257e+01 </wgt>
<wgt id='1336'> -7.9299751e+01 </wgt>
<wgt id='1337'> -7.9776172e+01 </wgt>
<wgt id='1338'> -7.8669653e+01 </wgt>
<wgt id='1339'> -8.0123432e+01 </wgt>
<wgt id='1340'> -7.8323871e+01 </wgt>
<wgt id='1341'> -7.9034859e+01 </wgt>
<wgt id='1342'> -7.9612538e+01 </wgt>
<wgt id='1343'> -7.9075499e+01 </wgt>
<wgt id='1344'> -7.9487552e+01 </wgt>
<wgt id='1345'> -7.7775849e+01 </wgt>
<wgt id='1346'> -8.0694790e+01 </wgt>
<wgt id='1347'> -7.9137676e+01 </wgt>
<wgt id='1348'> -7.9420208e+01 </wgt>
<wgt id='1349'> -7.8571765e+01 </wgt>
<wgt id='1350'> -7.9502180e+01 </wgt>
<wgt id='1351'> -7.9241339e+01 </wgt>
<wgt id='1352'> -7.9296619e+01 </wgt>
<wgt id='1353'> -7.9774231e+01 </wgt>
<wgt id='1354'> -7.8156145e+01 </wgt>
<wgt id='1355'> -8.0187892e+01 </wgt>
<wgt id='1356'> -7.8367482e+01 </wgt>
<wgt id='1357'> -7.9350842e+01 </wgt>
<wgt id='1358'> -7.8950620e+01 </wgt>
<wgt id='1359'> -7.8692404e+01 </wgt>
<wgt id='1360'> -7.9444728e+01 </wgt>
<wgt id='1361'> -7.9938851e+01 </wgt>
<wgt id='1362'> -7.8593833e+01 </wgt>
<wgt id='1363'> -7.9170480e+01 </wgt>
<wgt id='1364'> -7.8945238e+01 </wgt>
<wgt id='1365'> -7.9168288e+01 </wgt>
<wgt id='1366'> -7.8876315e+01 </wgt>
<wgt id='1367'> -7.9401331e+01 </wgt>
<wgt id='1368'> -7.9713436e+01 </wgt>
<wgt id='1369'> -7.9787393e+01 </wgt>
<wgt id='1370'> -7.9226537e+01 </wgt>
<wgt id='1371'> -7.9314530e+01 </wgt>
<wgt id='1372'> -7.9840073e+01 </wgt>
<wgt id='1373'> -7.8302899e+01 </wgt>
<wgt id='1374'> -7.8201014e+01 </wgt>
<wgt id='1375'> -7.9265185e+01 </wgt>
<wgt id='1376'> -7.9180420e+01 </wgt>
<wgt id='1377'> -7.6718011e+01 </wgt>
<wgt id='1378'> -8.1691560e+01 </wgt>
<wgt id='1379'> -7.6790833e+01 </wgt>
<wgt id='1380'> -7.4650602e+01 </wgt>
<wgt id='1381'> -7.8845664e+01 </wgt>
<wgt id='1382'> -8.4207733e+01 </wgt>
<wgt id='1383'> -7.6690848e+01 </wgt>
<wgt id='1384'> -7.6268603e+01 </wgt>
<wgt id='1385'> -1.0927507e+02 </wgt>
<wgt id='1386'> -1.0933112e+02 </wgt>
<wgt id='1387'> -1.0921177e+02 </wgt>
<wgt id='1388'> -1.0905468e+02 </wgt>
<wgt id='1389'> -1.0965038e+02 </wgt>
<wgt id='1390'> -1.0939567e+02 </wgt>
<wgt id='1391'> -1.0913136e+02 </wgt>
<wgt id='1392'> -1.1030750e+02 </wgt>
<wgt id='1393'> -1.0855728e+02 </wgt>
<wgt id='1394'> -1.0913731e+02 </wgt>
<wgt id='1395'> -1.0943709e+02 </wgt>
<wgt id='1396'> -1.0887423e+02 </wgt>
<wgt id='1397'> -1.0948267e+02 </wgt>
<wgt id='1398'> -1.0879372e+02 </wgt>
<wgt id='1399'> -1.0962351e+02 </wgt>
<wgt id='1400'> -1.0980038e+02 </wgt>
<wgt id='1401'> -1.0886008e+02 </wgt>
<wgt id='1402'> -1.0977500e+02 </wgt>
<wgt id='1403'> -1.0904761e+02 </wgt>
<wgt id='1404'> -1.0739644e+02 </wgt>
<wgt id='1405'> -1.1018910e+02 </wgt>
<wgt id='1406'> -1.0918175e+02 </wgt>
<wgt id='1407'> -1.0943946e+02 </wgt>
<wgt id='1408'> -1.0946013e+02 </wgt>
<wgt id='1409'> -1.0889822e+02 </wgt>
<wgt id='1410'> -1.0948069e+02 </wgt>
<wgt id='1411'> -1.0871769e+02 </wgt>
<wgt id='1412'> -1.0982427e+02 </wgt>
<wgt id='1413'> -1.0836141e+02 </wgt>
<wgt id='1414'> -1.0916315e+02 </wgt>
<wgt id='1415'> -1.0923943e+02 </wgt>
<wgt id='1416'> -1.0945922e+02 </wgt>
<wgt id='1417'> -1.0924756e+02 </wgt>
<wgt id='1418'> -1.0908281e+02 </wgt>
<wgt id='1419'> -1.0961348e+02 </wgt>
<wgt id='1420'> -1.0886168e+02 </wgt>
<wgt id='1421'> -1.0930753e+02 </wgt>
<wgt id='1422'> -1.0942117e+02 </wgt>
<wgt id='1423'> -1.0912365e+02 </wgt>
<wgt id='1424'> -1.0943100e+02 </wgt>
<wgt id='1425'> -1.0867003e+02 </wgt>
<wgt id='1426'> -1.0933722e+02 </wgt>
<wgt id='1427'> -1.0922546e+02 </wgt>
<wgt id='1428'> -1.0944495e+02 </wgt>
<wgt id='1429'> -1.0857399e+02 </wgt>
<wgt id='1430'> -1.0936495e+02 </wgt>
<wgt id='1431'> -1.0925391e+02 </wgt>
<wgt id='1432'> -1.0930380e+02 </wgt>
<wgt id='1433'> -1.0932234e+02 </wgt>
<wgt id='1434'> -1.0947971e+02 </wgt>
<wgt id='1435'> -1.0978128e+02 </wgt>
<wgt id='1436'> -6.7440587e+01 </wgt>
<wgt id='1437'> -6.7438318e+01 </wgt>
<wgt id='1438'> -6.7409284e+01 </wgt>
<wgt id='1439'> -6.7438580e+01 </wgt>
<wgt id='1440'> -6.7557777e+01 </wgt>
<wgt id='1441'> -6.7584457e+01 </wgt>
<wgt id='1442'> -6.7191716e+01 </wgt>
<wgt id='1443'> -6.7631161e+01 </wgt>
<wgt id='1444'> -6.7251238e+01 </wgt>
<wgt id='1445'> -6.7004949e+01 </wgt>
<wgt id='1446'> -6.7692724e+01 </wgt>
<wgt id='1447'> -6.7543027e+01 </wgt>
<wgt id='1448'> -6.7404577e+01 </wgt>
<wgt id='1449'> -6.7660242e+01 </wgt>
<wgt id='1450'> -6.7539095e+01 </wgt>
<wgt id='1451'> -6.7577138e+01 </wgt>
<wgt id='1452'> -6.7129264e+01 </wgt>
<wgt id='1453'> -6.7359147e+01 </wgt>
<wgt id='1454'> -6.7565117e+01 </wgt>
<wgt id='1455'> -6.7214807e+01 </wgt>
<wgt id='1456'> -6.7320056e+01 </wgt>
<wgt id='1457'> -6.7459303e+01 </wgt>
<wgt id='1458'> -6.7645422e+01 </wgt>
<wgt id='1459'> -6.7443222e+01 </wgt>
<wgt id='1460'> -6.7503692e+01 </wgt>
<wgt id='1461'> -6.7886941e+01 </wgt>
<wgt id='1462'> -6.7467200e+01 </wgt>
<wgt id='1463'> -6.7514644e+01 </wgt>
<wgt id='1464'> -6.7352074e+01 </wgt>
<wgt id='1465'> -7.9895124e+01 </wgt>
<wgt id='1466'> -7.7227682e+01 </wgt>
<wgt id='1467'> -7.7020988e+01 </wgt>
<wgt id='1468'> -7.6624821e+01 </wgt>
<wgt id='1469'> -7.7333002e+01 </wgt>
<wgt id='1470'> -7.7256421e+01 </wgt>
<wgt id='1471'> -7.7564571e+01 </wgt>
<wgt id='1472'> -7.6588172e+01 </wgt>
<wgt id='1473'> -7.8228086e+01 </wgt>
<wgt id='1474'> -7.8280641e+01 </wgt>
<wgt id='1475'> -7.6709317e+01 </wgt>
<wgt id='1476'> -7.6955937e+01 </wgt>
<wgt id='1477'> -7.7170888e+01 </wgt>
<wgt id='1478'> -7.6913784e+01 </wgt>
<wgt id='1479'> -7.7683586e+01 </wgt>
<wgt id='1480'> -7.7269880e+01 </wgt>
<wgt id='1481'> -7.7051960e+01 </wgt>
<wgt id='1482'> -7.7260314e+01 </wgt>
<wgt id='1483'> -7.7006118e+01 </wgt>
<wgt id='1484'> -7.7576595e+01 </wgt>
<wgt id='1485'> -7.7080582e+01 </wgt>
<wgt id='1486'> -7.7362071e+01 </wgt>
<wgt id='1487'> -7.7147393e+01 </wgt>
<wgt id='1488'> -7.6855863e+01 </wgt>
<wgt id='1489'> -7.7584870e+01 </wgt>
<wgt id='1490'> -7.7151672e+01 </wgt>
<wgt id='1491'> -7.7432177e+01 </wgt>
<wgt id='1492'> -7.7186463e+01 </wgt>
<wgt id='1493'> -7.7068840e+01 </wgt>
<wgt id='1494'> -7.7450136e+01 </wgt>
<wgt id='1495'> -7.7111395e+01 </wgt>
<wgt id='1496'> -7.6979449e+01 </wgt>
<wgt id='1497'> -7.7256986e+01 </wgt>
<wgt id='1498'> -7.7124783e+01 </wgt>
<wgt id='1499'> -7.6939319e+01 </wgt>
<wgt id='1500'> -7.7258867e+01 </wgt>
<wgt id='1501'> -7.7464789e+01 </wgt>
<wgt id='1502'> -7.7090582e+01 </wgt>
<wgt id='1503'> -7.7073346e+01 </wgt>
<wgt id='1504'> -7.7224167e+01 </wgt>
<wgt id='1505'> -7.7338561e+01 </wgt>
<wgt id='1506'> -7.7269796e+01 </wgt>
<wgt id='1507'> -7.7337032e+01 </wgt>
<wgt id='1508'> -7.7193172e+01 </wgt>
<wgt id='1509'> -7.7154244e+01 </wgt>
<wgt id='1510'> -7.7353826e+01 </wgt>
<wgt id='1511'> -7.7300718e+01 </wgt>
<wgt id='1512'> -7.7180616e+01 </wgt>
<wgt id='1513'> -7.7109318e+01 </wgt>
<wgt id='1514'> -7.7087464e+01 </wgt>
<wgt id='1515'> -7.7219735e+01 </wgt>
<wgt id='1516'> -7.7236146e+01 </wgt>
<wgt id='1517'> -7.7151688e+01 </wgt>
<wgt id='1518'> -7.7230540e+01 </wgt>
<wgt id='1519'> -7.7252453e+01 </wgt>
<wgt id='1520'> -7.7267067e+01 </wgt>
<wgt id='1521'> -7.7173378e+01 </wgt>
<wgt id='1522'> -7.7338211e+01 </wgt>
<wgt id='1523'> -7.7180211e+01 </wgt>
<wgt id='1524'> -7.7272355e+01 </wgt>
<wgt id='1525'> -7.7144185e+01 </wgt>
<wgt id='1526'> -7.7114714e+01 </wgt>
<wgt id='1527'> -7.7130847e+01 </wgt>
<wgt id='1528'> -7.7124544e+01 </wgt>
<wgt id='1529'> -7.7213998e+01 </wgt>
<wgt id='1530'> -7.7165609e+01 </wgt>
<wgt id='1531'> -7.7186686e+01 </wgt>
<wgt id='1532'> -7.7123660e+01 </wgt>
<wgt id='1533'> -7.7169111e+01 </wgt>
<wgt id='1534'> -7.7216087e+01 </wgt>
<wgt id='1535'> -7.7231260e+01 </wgt>
<wgt id='1536'> -7.7249981e+01 </wgt>
<wgt id='1537'> -7.7212348e+01 </wgt>
<wgt id='1538'> -7.7196351e+01 </wgt>
<wgt id='1539'> -7.7214090e+01 </wgt>
<wgt id='1540'> -7.7218271e+01 </wgt>
<wgt id='1541'> -7.7246789e+01 </wgt>
<wgt id='1542'> -7.7205781e+01 </wgt>
<wgt id='1543'> -7.7209722e+01 </wgt>
<wgt id='1544'> -7.7223388e+01 </wgt>
<wgt id='1545'> -7.7298337e+01 </wgt>
<wgt id='1546'> -7.7217439e+01 </wgt>
<wgt id='1547'> -7.7213597e+01 </wgt>
<wgt id='1548'> -7.7173174e+01 </wgt>
<wgt id='1549'> -7.7247411e+01 </wgt>
<wgt id='1550'> -7.7239300e+01 </wgt>
<wgt id='1551'> -7.7265250e+01 </wgt>
<wgt id='1552'> -7.7252512e+01 </wgt>
<wgt id='1553'> -7.7205731e+01 </wgt>
<wgt id='1554'> -7.7168331e+01 </wgt>
<wgt id='1555'> -7.7249418e+01 </wgt>
<wgt id='1556'> -7.7197402e+01 </wgt>
<wgt id='1557'> -7.7232390e+01 </wgt>
<wgt id='1558'> -7.7234793e+01 </wgt>
<wgt id='1559'> -7.7211235e+01 </wgt>
<wgt id='1560'> -7.7249193e+01 </wgt>
<wgt id='1561'> -7.7231034e+01 </wgt>
<wgt id='1562'> -7.7224728e+01 </wgt>
<wgt id='1563'> -7.7221183e+01 </wgt>
<wgt id='1564'> -7.7243424e+01 </wgt>
<wgt id='1565'> -7.7226591e+01 </wgt>
<wgt id='1566'> -7.7231790e+01 </wgt>
<wgt id='1567'> -7.5234584e+01 </wgt>
<wgt id='1568'> -7.9114603e+01 </wgt>
<wgt id='1569'> -7.6314587e+01 </wgt>
<wgt id='1570'> -7.6509834e+01 </wgt>
<wgt id='1571'> -7.6084114e+01 </wgt>
<wgt id='1572'> -7.6494002e+01 </wgt>
<wgt id='1573'> -7.6396212e+01 </wgt>
<wgt id='1574'> -7.6071062e+01 </wgt>
<wgt id='1575'> -7.6624260e+01 </wgt>
<wgt id='1576'> -7.7019942e+01 </wgt>
<wgt id='1577'> -7.6668001e+01 </wgt>
<wgt id='1578'> -7.6289165e+01 </wgt>
<wgt id='1579'> -7.6554541e+01 </wgt>
<wgt id='1580'> -7.6413781e+01 </wgt>
<wgt id='1581'> -7.5567442e+01 </wgt>
<wgt id='1582'> -7.6141527e+01 </wgt>
<wgt id='1583'> -7.5835930e+01 </wgt>
<wgt id='1584'> -7.6215926e+01 </wgt>
<wgt id='1585'> -7.6290450e+01 </wgt>
<wgt id='1586'> -7.6436983e+01 </wgt>
<wgt id='1587'> -7.6327563e+01 </wgt>
<wgt id='1588'> -7.5850922e+01 </wgt>
<wgt id='1589'> -7.6491190e+01 </wgt>
<wgt id='1590'> -7.6501720e+01 </wgt>
<wgt id='1591'> -7.6137497e+01 </wgt>
<wgt id='1592'> -7.6579225e+01 </wgt>
<wgt id='1593'> -7.6657174e+01 </wgt>
<wgt id='1594'> -7.6300864e+01 </wgt>
<wgt id='1595'> -7.6265886e+01 </wgt>
<wgt id='1596'> -7.6380392e+01 </wgt>
<wgt id='1597'> -7.6298129e+01 </wgt>
<wgt id='1598'> -7.6286209e+01 </wgt>
<wgt id='1599'> -7.6396447e+01 </wgt>
<wgt id='1600'> -7.6563224e+01 </wgt>
<wgt id='1601'> -7.6528848e+01 </wgt>
<wgt id='1602'> -7.6698298e+01 </wgt>
<wgt id='1603'> -7.6502918e+01 </wgt>
<wgt id='1604'> -7.6187288e+01 </wgt>
<wgt id='1605'> -7.6411225e+01 </wgt>
<wgt id='1606'> -7.6284003e+01 </wgt>
<wgt id='1607'> -7.6369090e+01 </wgt>
<wgt id='1608'> -7.6288902e+01 </wgt>
<wgt id='1609'> -7.6232754e+01 </wgt>
<wgt id='1610'> -7.6309734e+01 </wgt>
<wgt id='1611'> -7.6372576e+01 </wgt>
<wgt id='1612'> -7.6113728e+01 </wgt>
<wgt id='1613'> -7.6386651e+01 </wgt>
<wgt id='1614'> -7.6192119e+01 </wgt>
<wgt id='1615'> -7.6346214e+01 </wgt>
<wgt id='1616'> -7.6263896e+01 </wgt>
<wgt id='1617'> -7.6483622e+01 </wgt>
<wgt id='1618'> -7.6219812e+01 </wgt>
<wgt id='1619'> -7.6382398e+01 </wgt>
<wgt id='1620'> -7.6331816e+01 </wgt>
<wgt id='1621'> -7.6236978e+01 </wgt>
<wgt id='1622'> -7.6336060e+01 </wgt>
<wgt id='1623'> -7.6276090e+01 </wgt>
<wgt id='1624'> -7.6325575e+01 </wgt>
<wgt id='1625'> -7.6313252e+01 </wgt>
<wgt id='1626'> -7.6253038e+01 </wgt>
<wgt id='1627'> -7.6232466e+01 </wgt>
<wgt id='1628'> -7.6325734e+01 </wgt>
<wgt id='1629'> -7.6260095e+01 </wgt>
<wgt id='1630'> -7.6346049e+01 </wgt>
<wgt id='1631'> -7.6327624e+01 </wgt>
<wgt id='1632'> -7.6331823e+01 </wgt>
<wgt id='1633'> -7.6190469e+01 </wgt>
<wgt id='1634'> -7.6356319e+01 </wgt>
<wgt id='1635'> -7.6365107e+01 </wgt>
<wgt id='1636'> -7.6347580e+01 </wgt>
<wgt id='1637'> -7.6343773e+01 </wgt>
<wgt id='1638'> -7.6355809e+01 </wgt>
<wgt id='1639'> -7.6341614e+01 </wgt>
<wgt id='1640'> -7.6371490e+01 </wgt>
<wgt id='1641'> -7.6348319e+01 </wgt>
<wgt id='1642'> -7.6322161e+01 </wgt>
<wgt id='1643'> -7.6299002e+01 </wgt>
<wgt id='1644'> -7.6286091e+01 </wgt>
<wgt id='1645'> -7.6274680e+01 </wgt>
<wgt id='1646'> -7.6347597e+01 </wgt>
<wgt id='1647'> -7.6293500e+01 </wgt>
<wgt id='1648'> -7.6336992e+01 </wgt>
<wgt id='1649'> -7.6357248e+01 </wgt>
<wgt id='1650'> -7.6320083e+01 </wgt>
<wgt id='1651'> -7.6336995e+01 </wgt>
<wgt id='1652'> -7.6322352e+01 </wgt>
<wgt id='1653'> -7.6311535e+01 </wgt>
<wgt id='1654'> -7.6288987e+01 </wgt>
<wgt id='1655'> -7.6353500e+01 </wgt>
<wgt id='1656'> -7.6266568e+01 </wgt>
<wgt id='1657'> -7.6301888e+01 </wgt>
<wgt id='1658'> -7.6309299e+01 </wgt>
<wgt id='1659'> -7.6348526e+01 </wgt>
<wgt id='1660'> -7.6293297e+01 </wgt>
<wgt id='1661'> -7.6313648e+01 </wgt>
<wgt id='1662'> -7.6299454e+01 </wgt>
<wgt id='1663'> -7.6317583e+01 </wgt>
<wgt id='1664'> -7.6308020e+01 </wgt>
<wgt id='1665'> -7.6292946e+01 </wgt>
<wgt id='1666'> -7.6320798e+01 </wgt>
<wgt id='1667'> -7.6333361e+01 </wgt>
<wgt id='1668'> -7.6320349e+01 </wgt>
<wgt id='1669'> -7.6305574e+01 </wgt>
<wgt id='1670'> -7.4501233e+01 </wgt>
<wgt id='1671'> -7.7947400e+01 </wgt>
<wgt id='1672'> -7.7218213e+01 </wgt>
<wgt id='1673'> -7.6546323e+01 </wgt>
<wgt id='1674'> -7.6974744e+01 </wgt>
<wgt id='1675'> -7.7211435e+01 </wgt>
<wgt id='1676'> -7.8515454e+01 </wgt>
<wgt id='1677'> -7.7585740e+01 </wgt>
<wgt id='1678'> -7.7283133e+01 </wgt>
<wgt id='1679'> -7.7147745e+01 </wgt>
<wgt id='1680'> -7.7317566e+01 </wgt>
<wgt id='1681'> -7.7258554e+01 </wgt>
<wgt id='1682'> -7.7196820e+01 </wgt>
<wgt id='1683'> -7.7499463e+01 </wgt>
<wgt id='1684'> -7.7505139e+01 </wgt>
<wgt id='1685'> -7.7146970e+01 </wgt>
<wgt id='1686'> -7.7304439e+01 </wgt>
<wgt id='1687'> -7.7453894e+01 </wgt>
<wgt id='1688'> -7.7383710e+01 </wgt>
<wgt id='1689'> -7.6139843e+01 </wgt>
<wgt id='1690'> -7.7206431e+01 </wgt>
<wgt id='1691'> -7.7434855e+01 </wgt>
<wgt id='1692'> -7.7458523e+01 </wgt>
<wgt id='1693'> -7.7047894e+01 </wgt>
<wgt id='1694'> -7.7043672e+01 </wgt>
<wgt id='1695'> -7.7243582e+01 </wgt>
<wgt id='1696'> -7.6986525e+01 </wgt>
<wgt id='1697'> -7.7340215e+01 </wgt>
<wgt id='1698'> -7.7023938e+01 </wgt>
<wgt id='1699'> -7.7341520e+01 </wgt>
<wgt id='1700'> -7.7098926e+01 </wgt>
<wgt id='1701'> -7.7224585e+01 </wgt>
<wgt id='1702'> -7.7277348e+01 </wgt>
<wgt id='1703'> -7.5234584e+01 </wgt>
<wgt id='1704'> -7.9114603e+01 </wgt>
<wgt id='1705'> -7.6304665e+01 </wgt>
<wgt id='1706'> -7.6828075e+01 </wgt>
<wgt id='1707'> -7.6077096e+01 </wgt>
<wgt id='1708'> -7.6242508e+01 </wgt>
<wgt id='1709'> -7.5735525e+01 </wgt>
<wgt id='1710'> -7.5553600e+01 </wgt>
<wgt id='1711'> -7.6317055e+01 </wgt>
<wgt id='1712'> -7.6238153e+01 </wgt>
<wgt id='1713'> -7.6110493e+01 </wgt>
<wgt id='1714'> -7.6044542e+01 </wgt>
<wgt id='1715'> -7.7214450e+01 </wgt>
<wgt id='1716'> -7.6223677e+01 </wgt>
<wgt id='1717'> -7.6298659e+01 </wgt>
<wgt id='1718'> -7.6306509e+01 </wgt>
<wgt id='1719'> -7.6261179e+01 </wgt>
<wgt id='1720'> -7.6172606e+01 </wgt>
<wgt id='1721'> -7.6216773e+01 </wgt>
<wgt id='1722'> -7.6063848e+01 </wgt>
<wgt id='1723'> -7.6327062e+01 </wgt>
<wgt id='1724'> -7.6446353e+01 </wgt>
<wgt id='1725'> -7.5825241e+01 </wgt>
<wgt id='1726'> -7.6266973e+01 </wgt>
<wgt id='1727'> -7.6541060e+01 </wgt>
<wgt id='1728'> -7.6264390e+01 </wgt>
<wgt id='1729'> -7.6340841e+01 </wgt>
<wgt id='1730'> -7.6314353e+01 </wgt>
<wgt id='1731'> -7.6450495e+01 </wgt>
<wgt id='1732'> -7.6354030e+01 </wgt>
<wgt id='1733'> -7.6378398e+01 </wgt>
<wgt id='1734'> -7.6393500e+01 </wgt>
<wgt id='1735'> -7.6452644e+01 </wgt>
<wgt id='1736'> -7.4501233e+01 </wgt>
<wgt id='1737'> -7.7947400e+01 </wgt>
<wgt id='1738'> -8.6110762e+01 </wgt>
<wgt id='1739'> -8.6105061e+01 </wgt>
<wgt id='1740'> -8.6116352e+01 </wgt>
<wgt id='1741'> -8.6213177e+01 </wgt>
<wgt id='1742'> -8.6008054e+01 </wgt>
<wgt id='1743'> -8.6022838e+01 </wgt>
<wgt id='1744'> -8.6197914e+01 </wgt>
<wgt id='1745'> -8.5937321e+01 </wgt>
<wgt id='1746'> -8.6282367e+01 </wgt>
<wgt id='1747'> -8.6557596e+01 </wgt>
<wgt id='1748'> -8.5664756e+01 </wgt>
<wgt id='1749'> -8.6182940e+01 </wgt>
<wgt id='1750'> -8.5989911e+01 </wgt>
<wgt id='1751'> -8.5775182e+01 </wgt>
<wgt id='1752'> -8.6442053e+01 </wgt>
<wgt id='1753'> -8.5953022e+01 </wgt>
<wgt id='1754'> -8.6401359e+01 </wgt>
<wgt id='1755'> -8.5924015e+01 </wgt>
<wgt id='1756'> -8.6144808e+01 </wgt>
<wgt id='1757'> -8.6048526e+01 </wgt>
<wgt id='1758'> -8.6229515e+01 </wgt>
<wgt id='1759'> -8.6455571e+01 </wgt>
<wgt id='1760'> -8.5703287e+01 </wgt>
<wgt id='1761'> -8.5563039e+01 </wgt>
<wgt id='1762'> -8.6352112e+01 </wgt>
<wgt id='1763'> -8.6646252e+01 </wgt>
<wgt id='1764'> -8.5662353e+01 </wgt>
<wgt id='1765'> -8.5635925e+01 </wgt>
<wgt id='1766'> -8.6447488e+01 </wgt>
<wgt id='1767'> -8.6110762e+01 </wgt>
<wgt id='1768'> -8.5875629e+01 </wgt>
<wgt id='1769'> -8.6400071e+01 </wgt>
<wgt id='1770'> -8.5830190e+01 </wgt>
<wgt id='1771'> -8.6314781e+01 </wgt>
<wgt id='1772'> -8.6796356e+01 </wgt>
<wgt id='1773'> -8.5679313e+01 </wgt>
<wgt id='1774'> -8.5931260e+01 </wgt>
<wgt id='1775'> -8.6294946e+01 </wgt>
<wgt id='1776'> -8.5670962e+01 </wgt>
<wgt id='1777'> -8.6593068e+01 </wgt>
<wgt id='1778'> -8.6063790e+01 </wgt>
<wgt id='1779'> -8.6612082e+01 </wgt>
<wgt id='1780'> -8.6706585e+01 </wgt>
<wgt id='1781'> -8.3627387e+01 </wgt>
<wgt id='1782'> -8.3652506e+01 </wgt>
<wgt id='1783'> -8.3631901e+01 </wgt>
<wgt id='1784'> -8.3779981e+01 </wgt>
<wgt id='1785'> -8.3504160e+01 </wgt>
<wgt id='1786'> -8.3638552e+01 </wgt>
<wgt id='1787'> -8.3644898e+01 </wgt>
<wgt id='1788'> -8.3450773e+01 </wgt>
<wgt id='1789'> -8.3829154e+01 </wgt>
<wgt id='1790'> -8.3964543e+01 </wgt>
<wgt id='1791'> -8.3313455e+01 </wgt>
<wgt id='1792'> -8.3828715e+01 </wgt>
<wgt id='1793'> -8.3454172e+01 </wgt>
<wgt id='1794'> -8.3256847e+01 </wgt>
<wgt id='1795'> -8.4035162e+01 </wgt>
<wgt id='1796'> -8.3603110e+01 </wgt>
<wgt id='1797'> -8.3895690e+01 </wgt>
<wgt id='1798'> -8.3741577e+01 </wgt>
<wgt id='1799'> -8.3525471e+01 </wgt>
<wgt id='1800'> -8.3749016e+01 </wgt>
<wgt id='1801'> -8.3527055e+01 </wgt>
<wgt id='1802'> -8.2955770e+01 </wgt>
<wgt id='1803'> -8.4254733e+01 </wgt>
<wgt id='1804'> -8.3921762e+01 </wgt>
<wgt id='1805'> -8.3362492e+01 </wgt>
<wgt id='1806'> -8.3331047e+01 </wgt>
<wgt id='1807'> -8.3740846e+01 </wgt>
<wgt id='1808'> -8.3349282e+01 </wgt>
<wgt id='1809'> -8.3752254e+01 </wgt>
<wgt id='1810'> -8.3617928e+01 </wgt>
<wgt id='1811'> -8.3442583e+01 </wgt>
<wgt id='1812'> -8.3729415e+01 </wgt>
<wgt id='1813'> -8.3379132e+01 </wgt>
<wgt id='1814'> -8.3755490e+01 </wgt>
<wgt id='1815'> -8.3971057e+01 </wgt>
<wgt id='1816'> -8.3123498e+01 </wgt>
<wgt id='1817'> -8.3454995e+01 </wgt>
<wgt id='1818'> -8.3993863e+01 </wgt>
<wgt id='1819'> -8.2368830e+01 </wgt>
<wgt id='1820'> -8.4212454e+01 </wgt>
<wgt id='1821'> -8.2508840e+01 </wgt>
<wgt id='1822'> -8.4841139e+01 </wgt>
<wgt id='1823'> -8.2797144e+01 </wgt>
<wgt id='1824'> -7.8734683e+01 </wgt>
<wgt id='1825'> -7.8722894e+01 </wgt>
<wgt id='1826'> -7.8710864e+01 </wgt>
<wgt id='1827'> -7.8698869e+01 </wgt>
<wgt id='1828'> -7.8687190e+01 </wgt>
<wgt id='1829'> -7.8675165e+01 </wgt>
<wgt id='1830'> -7.8663170e+01 </wgt>
<wgt id='1831'> -7.8651351e+01 </wgt>
<wgt id='1832'> -7.8639352e+01 </wgt>
<wgt id='1833'> -7.8627340e+01 </wgt>
<wgt id='1834'> -7.8615356e+01 </wgt>
<wgt id='1835'> -7.8603644e+01 </wgt>
<wgt id='1836'> -7.8591672e+01 </wgt>
<wgt id='1837'> -7.8579535e+01 </wgt>
<wgt id='1838'> -7.8567932e+01 </wgt>
<wgt id='1839'> -7.8555885e+01 </wgt>
<wgt id='1840'> -7.8543937e+01 </wgt>
<wgt id='1841'> -7.8532193e+01 </wgt>
<wgt id='1842'> -7.8520239e+01 </wgt>
<wgt id='1843'> -7.8508094e+01 </wgt>
<wgt id='1844'> -7.8496461e+01 </wgt>
<wgt id='1845'> -7.8484418e+01 </wgt>
<wgt id='1846'> -7.8472450e+01 </wgt>
<wgt id='1847'> -7.8460416e+01 </wgt>
<wgt id='1848'> -7.8448755e+01 </wgt>
<wgt id='1849'> -7.8436666e+01 </wgt>
<wgt id='1850'> -7.8424685e+01 </wgt>
<wgt id='1851'> -7.8413050e+01 </wgt>
<wgt id='1852'> -7.8401073e+01 </wgt>
<wgt id='1853'> -7.8389075e+01 </wgt>
<wgt id='1854'> -7.8377304e+01 </wgt>
<wgt id='1855'> -7.5735792e+01 </wgt>
<wgt id='1856'> -7.5919891e+01 </wgt>
<wgt id='1857'> -7.5505243e+01 </wgt>
<wgt id='1858'> -7.5913598e+01 </wgt>
<wgt id='1859'> -7.5814276e+01 </wgt>
<wgt id='1860'> -7.5493898e+01 </wgt>
<wgt id='1861'> -7.6049718e+01 </wgt>
<wgt id='1862'> -7.6442442e+01 </wgt>
<wgt id='1863'> -7.6086632e+01 </wgt>
<wgt id='1864'> -7.5711389e+01 </wgt>
<wgt id='1865'> -7.5971806e+01 </wgt>
<wgt id='1866'> -7.5844630e+01 </wgt>
<wgt id='1867'> -7.4999174e+01 </wgt>
<wgt id='1868'> -7.5567170e+01 </wgt>
<wgt id='1869'> -7.5259542e+01 </wgt>
<wgt id='1870'> -7.5624323e+01 </wgt>
<wgt id='1871'> -7.5722128e+01 </wgt>
<wgt id='1872'> -7.5852742e+01 </wgt>
<wgt id='1873'> -7.5746457e+01 </wgt>
<wgt id='1874'> -7.5282758e+01 </wgt>
<wgt id='1875'> -7.5918732e+01 </wgt>
<wgt id='1876'> -7.5915940e+01 </wgt>
<wgt id='1877'> -7.5559605e+01 </wgt>
<wgt id='1878'> -7.5998950e+01 </wgt>
<wgt id='1879'> -7.6070472e+01 </wgt>
<wgt id='1880'> -7.5716061e+01 </wgt>
<wgt id='1881'> -7.5680387e+01 </wgt>
<wgt id='1882'> -7.5808347e+01 </wgt>
<wgt id='1883'> -7.5722739e+01 </wgt>
<wgt id='1884'> -7.5704388e+01 </wgt>
<wgt id='1885'> -7.5813192e+01 </wgt>
<wgt id='1886'> -7.5989567e+01 </wgt>
<wgt id='1887'> -7.5945770e+01 </wgt>
<wgt id='1888'> -7.6114071e+01 </wgt>
<wgt id='1889'> -7.5922634e+01 </wgt>
<wgt id='1890'> -7.5607687e+01 </wgt>
<wgt id='1891'> -7.5832155e+01 </wgt>
<wgt id='1892'> -7.5706050e+01 </wgt>
<wgt id='1893'> -7.5789270e+01 </wgt>
<wgt id='1894'> -7.5706614e+01 </wgt>
<wgt id='1895'> -7.5654450e+01 </wgt>
<wgt id='1896'> -7.5729477e+01 </wgt>
<wgt id='1897'> -7.5792404e+01 </wgt>
<wgt id='1898'> -7.5540132e+01 </wgt>
<wgt id='1899'> -7.5806936e+01 </wgt>
<wgt id='1900'> -7.5613722e+01 </wgt>
<wgt id='1901'> -7.5768834e+01 </wgt>
<wgt id='1902'> -7.5683941e+01 </wgt>
<wgt id='1903'> -7.5904832e+01 </wgt>
<wgt id='1904'> -7.5640852e+01 </wgt>
<wgt id='1905'> -7.5803983e+01 </wgt>
<wgt id='1906'> -7.5752676e+01 </wgt>
<wgt id='1907'> -7.5659023e+01 </wgt>
<wgt id='1908'> -7.5757027e+01 </wgt>
<wgt id='1909'> -7.5698491e+01 </wgt>
<wgt id='1910'> -7.5747540e+01 </wgt>
<wgt id='1911'> -7.5732032e+01 </wgt>
<wgt id='1912'> -7.5674943e+01 </wgt>
<wgt id='1913'> -7.5656453e+01 </wgt>
<wgt id='1914'> -7.5748071e+01 </wgt>
<wgt id='1915'> -7.5683366e+01 </wgt>
<wgt id='1916'> -7.5767249e+01 </wgt>
<wgt id='1917'> -7.5747811e+01 </wgt>
<wgt id='1918'> -7.5751412e+01 </wgt>
<wgt id='1919'> -7.5614032e+01 </wgt>
<wgt id='1920'> -7.5776575e+01 </wgt>
<wgt id='1921'> -7.5785422e+01 </wgt>
<wgt id='1922'> -7.5767391e+01 </wgt>
<wgt id='1923'> -7.5765418e+01 </wgt>
<wgt id='1924'> -7.5775424e+01 </wgt>
<wgt id='1925'> -7.5762110e+01 </wgt>
<wgt id='1926'> -7.5793017e+01 </wgt>
<wgt id='1927'> -7.5768407e+01 </wgt>
<wgt id='1928'> -7.5742236e+01 </wgt>
<wgt id='1929'> -7.5720549e+01 </wgt>
<wgt id='1930'> -7.5707998e+01 </wgt>
<wgt id='1931'> -7.5698005e+01 </wgt>
<wgt id='1932'> -7.5768781e+01 </wgt>
<wgt id='1933'> -7.5716234e+01 </wgt>
<wgt id='1934'> -7.5757771e+01 </wgt>
<wgt id='1935'> -7.5776866e+01 </wgt>
<wgt id='1936'> -7.5742293e+01 </wgt>
<wgt id='1937'> -7.5758298e+01 </wgt>
<wgt id='1938'> -7.5742963e+01 </wgt>
<wgt id='1939'> -7.5732135e+01 </wgt>
<wgt id='1940'> -7.5710911e+01 </wgt>
<wgt id='1941'> -7.5775812e+01 </wgt>
<wgt id='1942'> -7.5687675e+01 </wgt>
<wgt id='1943'> -7.5722715e+01 </wgt>
<wgt id='1944'> -7.5729895e+01 </wgt>
<wgt id='1945'> -7.5768896e+01 </wgt>
<wgt id='1946'> -7.5713615e+01 </wgt>
<wgt id='1947'> -7.5734136e+01 </wgt>
<wgt id='1948'> -7.5721118e+01 </wgt>
<wgt id='1949'> -7.5737174e+01 </wgt>
<wgt id='1950'> -7.5729538e+01 </wgt>
<wgt id='1951'> -7.5714597e+01 </wgt>
<wgt id='1952'> -7.5741874e+01 </wgt>
<wgt id='1953'> -7.5754134e+01 </wgt>
<wgt id='1954'> -7.5741619e+01 </wgt>
<wgt id='1955'> -7.5727049e+01 </wgt>
<wgt id='1956'> -7.5735320e+01 </wgt>
<wgt id='1957'> -7.5738407e+01 </wgt>
<wgt id='1958'> -7.5736298e+01 </wgt>
<wgt id='1959'> -7.5736379e+01 </wgt>
<wgt id='1960'> -7.5737266e+01 </wgt>
<wgt id='1961'> -7.5736007e+01 </wgt>
<wgt id='1962'> -7.5738972e+01 </wgt>
</rwgt>
</event>
<event npLO=" -1 " npNLO=" 0 ">
 7      0 +1.5146096e+02 4.36235630e+01 7.54677110e-03 1.17289390e-01
       -3 -1    0    0    0  501 +0.0000000000e+00 +0.0000000000e+00 +6.9713431000e+01 6.9713431000e+01 0.0000000000e+00 0.0000e+00 9.0000e+00
       21 -1    0    0  501  502 +0.0000000000e+00 +0.0000000000e+00 -5.5715749000e+01 5.5715749000e+01 0.0000000000e+00 0.0000e+00 9.0000e+00
       23  2    1    2    0    0 -2.0040522000e+01 +1.8379680000e+01 +2.0192213000e-01 9.4937244000e+01 9.0959356000e+01 0.0000e+00 0.0000e+00
       15  1    3    3    0    0 -1.9736629000e+01 +2.5597314000e+01 +6.2858180000e+00 3.2976147000e+01 1.7770000000e+00 0.0000e+00 9.0000e+00
      -15  1    3    3    0    0 +2.3306116000e+01 -2.1739088000e+01 +4.6094361000e+00 3.2251630000e+01 1.7770000000e+00 0.0000e+00 9.0000e+00
       22  1    3    3    0    0 -2.3610009000e+01 +1.4521454000e+01 -1.0693332000e+01 2.9709468000e+01 0.0000000000e+00 0.0000e+00 9.0000e+00
       -3  1    1    2    0  502 +2.0040522000e+01 -1.8379680000e+01 +1.3795760000e+01 3.0491936000e+01 0.0000000000e+00 0.0000e+00 9.0000e+00
#aMCatNLO 2  0  0  2  1 0.48031322E+02 0.00000000E+00 -9  6  0 0.00000000E+00 0.00000000E+00 0.00000000E+00 0.00000000E+00 0.00000000E+00
<rwgt>
<wgt id='1001'> +1.5146000e+02 </wgt>
<wgt id='1002'> +1.5146000e+02 </wgt>
<wgt id='1003'> +1.3245000e+02 </wgt>
<wgt id='1004'> +1.4340000e+02 </wgt>
<wgt id='1005'> +1.3747000e+02 </wgt>
<wgt id='1006'> +1.4296000e+02 </wgt>
<wgt id='1007'> +1.2875000e+02 </wgt>
<wgt id='1008'> +1.5843000e+02 </wgt>
<wgt id='1009'> +1.4747000e+02 </wgt>
<wgt id='1010'> +1.5107000e+02 </wgt>
<wgt id='1011'> +1.5496000e+02 </wgt>
<wgt id='1012'> +1.7989000e+02 </wgt>
<wgt id='1013'> +1.5428000e+02 </wgt>
<wgt id='1014'> +1.5018000e+02 </wgt>
<wgt id='1015'> +1.4462000e+02 </wgt>
<wgt id='1016'> +1.5202000e+02 </wgt>
<wgt id='1017'> +1.5942000e+02 </wgt>
<wgt id='1018'> +1.5445000e+02 </wgt>
<wgt id='1019'> +1.5942000e+02 </wgt>
<wgt id='1020'> +1.5718000e+02 </wgt>
<wgt id='1021'> +1.4809000e+02 </wgt>
<wgt id='1022'> +1.3742000e+02 </wgt>
<wgt id='1023'> +1.3988000e+02 </wgt>
<wgt id='1024'> +1.5115000e+02 </wgt>
<wgt id='1025'> +1.5849000e+02 </wgt>
<wgt id='1026'> +1.3593000e+02 </wgt>
<wgt id='1027'> +1.4318000e+02 </wgt>
<wgt id='1028'> +1.6879000e+02 </wgt>
<wgt id='1029'> +1.4271000e+02 </wgt>
<wgt id='1030'> +1.4829000e+02 </wgt>
<wgt id='1031'> +1.4090000e+02 </wgt>
<wgt id='1032'> +1.4535000e+02 </wgt>
<wgt id='1033'> +1.4009000e+02 </wgt>
<wgt id='1034'> +1.8154000e+02 </wgt>
<wgt id='1035'> +1.5751000e+02 </wgt>
<wgt id='1036'> +1.6097000e+02 </wgt>
<wgt id='1037'> +1.4542000e+02 </wgt>
<wgt id='1038'> +1.4370000e+02 </wgt>
<wgt id='1039'> +1.4902000e+02 </wgt>
<wgt id='1040'> +1.5806000e+02 </wgt>
<wgt id='1041'> +1.4485000e+02 </wgt>
<wgt id='1042'> +1.4627000e+02 </wgt>
<wgt id='1043'> +1.4443000e+02 </wgt>
<wgt id='1044'> +1.5083000e+02 </wgt>
<wgt id='1045'> +1.5245000e+02 </wgt>
<wgt id='1046'> +1.5978000e+02 </wgt>
<wgt id='1047'> +1.5998000e+02 </wgt>
<wgt id='1048'> +1.4876000e+02 </wgt>
<wgt id='1049'> +1.6321000e+02 </wgt>
<wgt id='1050'> +1.5266000e+02 </wgt>
<wgt id='1051'> +1.4672000e+02 </wgt>
<wgt id='1052'> +1.4177000e+02 </wgt>
<wgt id='1053'> +1.4776000e+02 </wgt>
<wgt id='1054'> +1.5259000e+02 </wgt>
<wgt id='1055'> +1.8611000e+02 </wgt>
<wgt id='1056'> +1.5426000e+02 </wgt>
<wgt id='1057'> +1.5316000e+02 </wgt>
<wgt id='1058'> +1.5103000e+02 </wgt>
<wgt id='1059'> +1.4354000e+02 </wgt>
<wgt id='1060'> +1.4301000e+02 </wgt>
<wgt id='1061'> +1.4728000e+02 </wgt>
<wgt id='1062'> +1.5013000e+02 </wgt>
<wgt id='1063'> +1.5473000e+02 </wgt>
<wgt id='1064'> +1.4352000e+02 </wgt>
<wgt id='1065'> +1.5137000e+02 </wgt>
<wgt id='1066'> +1.6099000e+02 </wgt>
<wgt id='1067'> +1.5017000e+02 </wgt>
<wgt id='1068'> +1.5080000e+02 </wgt>
<wgt id='1069'> +1.8753000e+02 </wgt>
<wgt id='1070'> +1.5128000e+02 </wgt>
<wgt id='1071'> +1.5732000e+02 </wgt>
<wgt id='1072'> +1.5040000e+02 </wgt>
<wgt id='1073'> +1.6327000e+02 </wgt>
<wgt id='1074'> +1.7562000e+02 </wgt>
<wgt id='1075'> +1.6120000e+02 </wgt>
<wgt id='1076'> +1.5210000e+02 </wgt>
<wgt id='1077'> +1.4119000e+02 </wgt>
<wgt id='1078'> +1.6333000e+02 </wgt>
<wgt id='1079'> +1.5483000e+02 </wgt>
<wgt id='1080'> +1.5520000e+02 </wgt>
<wgt id='1081'> +1.5691000e+02 </wgt>
<wgt id='1082'> +1.4746000e+02 </wgt>
<wgt id='1083'> +1.5188000e+02 </wgt>
<wgt id='1084'> +1.4115000e+02 </wgt>
<wgt id='1085'> +1.5264000e+02 </wgt>
<wgt id='1086'> +1.4605000e+02 </wgt>
<wgt id='1087'> +1.4281000e+02 </wgt>
<wgt id='1088'> +1.4886000e+02 </wgt>
<wgt id='1089'> +1.5010000e+02 </wgt>
<wgt id='1090'> +1.4328000e+02 </wgt>
<wgt id='1091'> +1.5060000e+02 </wgt>
<wgt id='1092'> +1.4352000e+02 </wgt>
<wgt id='1093'> +1.4120000e+02 </wgt>
<wgt id='1094'> +1.5547000e+02 </wgt>
<wgt id='1095'> +1.5074000e+02 </wgt>
<wgt id='1096'> +1.5133000e+02 </wgt>
<wgt id='1097'> +1.4608000e+02 </wgt>
<wgt id='1098'> +1.6451000e+02 </wgt>
<wgt id='1099'> +1.5226000e+02 </wgt>
<wgt id='1100'> +1.5483000e+02 </wgt>
<wgt id='1101'> +1.4384000e+02 </wgt>
<wgt id='1102'> +1.4008000e+02 </wgt>
<wgt id='1103'> +1.4839000e+02 </wgt>
<wgt id='1104'> +1.5179000e+02 </wgt>
<wgt id='1105'> +1.5146096e+02 </wgt>
<wgt id='1106'> +6.8616983e+01 </wgt>
<wgt id='1107'> +8.4529870e+01 </wgt>
<wgt id='1108'> +8.2685861e+01 </wgt>
<wgt id='1109'> +7.4919032e+01 </wgt>
<wgt id='1110'> +9.2293420e+01 </wgt>
<wgt id='1111'> +6.7450218e+01 </wgt>
<wgt id='1112'> +6.1114499e+01 </wgt>
<wgt id='1113'> +7.5287494e+01 </wgt>
<wgt id='1114'> +8.5245553e+01 </wgt>
<wgt id='1115'> +7.0807917e+01 </wgt>
<wgt id='1116'> +8.6314622e+01 </wgt>
<wgt id='1117'> +9.0547025e+01 </wgt>
<wgt id='1118'> +8.6780740e+01 </wgt>
<wgt id='1119'> +8.5500429e+01 </wgt>
<wgt id='1120'> +7.3982928e+01 </wgt>
<wgt id='1121'> +8.0241129e+01 </wgt>
<wgt id='1122'> +9.4046003e+01 </wgt>
<wgt id='1123'> +8.7067498e+01 </wgt>
<wgt id='1124'> +8.2918701e+01 </wgt>
<wgt id='1125'> +8.5717055e+01 </wgt>
<wgt id='1126'> +9.0124314e+01 </wgt>
<wgt id='1127'> +8.8052753e+01 </wgt>
<wgt id='1128'> +8.6487572e+01 </wgt>
<wgt id='1129'> +8.4703853e+01 </wgt>
<wgt id='1130'> +8.2634055e+01 </wgt>
<wgt id='1131'> +7.9241549e+01 </wgt>
<wgt id='1132'> +8.7242613e+01 </wgt>
<wgt id='1133'> +8.7830792e+01 </wgt>
<wgt id='1134'> +9.4480251e+01 </wgt>
<wgt id='1135'> +8.5509959e+01 </wgt>
<wgt id='1136'> +8.7595438e+01 </wgt>
<wgt id='1137'> +8.0792278e+01 </wgt>
<wgt id='1138'> +9.3550491e+01 </wgt>
<wgt id='1139'> +9.0258700e+01 </wgt>
<wgt id='1140'> +8.2545728e+01 </wgt>
<wgt id='1141'> +8.3633449e+01 </wgt>
<wgt id='1142'> +8.8428865e+01 </wgt>
<wgt id='1143'> +8.2766628e+01 </wgt>
<wgt id='1144'> +8.0037015e+01 </wgt>
<wgt id='1145'> +7.9728108e+01 </wgt>
<wgt id='1146'> +8.7245477e+01 </wgt>
<wgt id='1147'> +8.2796080e+01 </wgt>
<wgt id='1148'> +9.6048186e+01 </wgt>
<wgt id='1149'> +8.5035198e+01 </wgt>
<wgt id='1150'> +8.8642451e+01 </wgt>
<wgt id='1151'> +8.6852480e+01 </wgt>
<wgt id='1152'> +8.6231451e+01 </wgt>
<wgt id='1153'> +8.3681623e+01 </wgt>
<wgt id='1154'> +8.2783453e+01 </wgt>
<wgt id='1155'> +8.5440757e+01 </wgt>
<wgt id='1156'> +8.2074304e+01 </wgt>
<wgt id='1157'> +8.3371500e+01 </wgt>
<wgt id='1158'> +7.8298317e+01 </wgt>
<wgt id='1159'> +8.6528229e+01 </wgt>
<wgt id='1160'> +8.2900196e+01 </wgt>
<wgt id='1161'> +8.6909714e+01 </wgt>
<wgt id='1162'> +8.9232134e+01 </wgt>
<wgt id='1163'> +8.1888570e+01 </wgt>
<wgt id='1164'> +8.1762165e+01 </wgt>
<wgt id='1165'> +8.7199809e+01 </wgt>
<wgt id='1166'> +8.3842621e+01 </wgt>
<wgt id='1167'> +8.8726809e+01 </wgt>
<wgt id='1168'> +7.9531887e+01 </wgt>
<wgt id='1169'> +8.8476246e+01 </wgt>
<wgt id='1170'> +8.7741764e+01 </wgt>
<wgt id='1171'> +8.5971664e+01 </wgt>
<wgt id='1172'> +8.9454868e+01 </wgt>
<wgt id='1173'> +8.4960902e+01 </wgt>
<wgt id='1174'> +8.0433403e+01 </wgt>
<wgt id='1175'> +7.9168687e+01 </wgt>
<wgt id='1176'> +8.4518951e+01 </wgt>
<wgt id='1177'> +8.6550403e+01 </wgt>
<wgt id='1178'> +9.2756855e+01 </wgt>
<wgt id='1179'> +8.0810914e+01 </wgt>
<wgt id='1180'> +8.3264712e+01 </wgt>
<wgt id='1181'> +7.8199435e+01 </wgt>
<wgt id='1182'> +8.0224911e+01 </wgt>
<wgt id='1183'> +8.5543080e+01 </wgt>
<wgt id='1184'> +8.4920215e+01 </wgt>
<wgt id='1185'> +8.3321609e+01 </wgt>
<wgt id='1186'> +7.9805781e+01 </wgt>
<wgt id='1187'> +9.0559760e+01 </wgt>
<wgt id='1188'> +9.1663893e+01 </wgt>
<wgt id='1189'> +8.7498015e+01 </wgt>
<wgt id='1190'> +7.9218145e+01 </wgt>
<wgt id='1191'> +8.4355446e+01 </wgt>
<wgt id='1192'> +8.4860755e+01 </wgt>
<wgt id='1193'> +8.9882569e+01 </wgt>
<wgt id='1194'> +8.1841978e+01 </wgt>
<wgt id='1195'> +8.7769756e+01 </wgt>
<wgt id='1196'> +8.2634055e+01 </wgt>
<wgt id='1197'> +8.4969850e+01 </wgt>
<wgt id='1198'> +9.2032859e+01 </wgt>
<wgt id='1199'> +8.5921977e+01 </wgt>
<wgt id='1200'> +8.3211276e+01 </wgt>
<wgt id='1201'> +9.5088160e+01 </wgt>
<wgt id='1202'> +7.8576960e+01 </wgt>
<wgt id='1203'> +9.1094366e+01 </wgt>
<wgt id='1204'> +8.6242289e+01 </wgt>
<wgt id='1205'> +8.9213014e+01 </wgt>
<wgt id='1206'> +9.2004164e+01 </wgt>
<wgt id='1207'> +8.7477872e+01 </wgt>
<wgt id='1208'> +7.7347814e+01 </wgt>
<wgt id='1209'> +8.6256542e+01 </wgt>
<wgt id='1210'> +8.7998147e+01 </wgt>
<wgt id='1211'> +7.8375459e+01 </wgt>
<wgt id='1212'> +8.3988954e+01 </wgt>
<wgt id='1213'> +8.6852613e+01 </wgt>
<wgt id='1214'> +8.4817673e+01 </wgt>
<wgt id='1215'> +7.7843224e+01 </wgt>
<wgt id='1216'> +8.3056393e+01 </wgt>
<wgt id='1217'> +8.3410314e+01 </wgt>
<wgt id='1218'> +8.2683414e+01 </wgt>
<wgt id='1219'> +8.2940515e+01 </wgt>
<wgt id='1220'> +8.2407362e+01 </wgt>
<wgt id='1221'> +8.2747963e+01 </wgt>
<wgt id='1222'> +8.3669378e+01 </wgt>
<wgt id='1223'> +8.2635758e+01 </wgt>
<wgt id='1224'> +8.3359023e+01 </wgt>
<wgt id='1225'> +8.2764068e+01 </wgt>
<wgt id='1226'> +8.4786582e+01 </wgt>
<wgt id='1227'> +8.3533543e+01 </wgt>
<wgt id='1228'> +8.2413835e+01 </wgt>
<wgt id='1229'> +8.2689789e+01 </wgt>
<wgt id='1230'> +8.1957959e+01 </wgt>
<wgt id='1231'> +8.4926018e+01 </wgt>
<wgt id='1232'> +8.1434111e+01 </wgt>
<wgt id='1233'> +8.3584043e+01 </wgt>
<wgt id='1234'> +8.2217620e+01 </wgt>
<wgt id='1235'> +8.3735696e+01 </wgt>
<wgt id='1236'> +8.4638930e+01 </wgt>
<wgt id='1237'> +8.1293684e+01 </wgt>
<wgt id='1238'> +8.2715639e+01 </wgt>
<wgt id='1239'> +8.3223619e+01 </wgt>
<wgt id='1240'> +8.2761194e+01 </wgt>
<wgt id='1241'> +8.3898167e+01 </wgt>
<wgt id='1242'> +8.2973201e+01 </wgt>
<wgt id='1243'> +8.3666624e+01 </wgt>
<wgt id='1244'> +8.3386961e+01 </wgt>
<wgt id='1245'> +8.3115420e+01 </wgt>
<wgt id='1246'> +8.2806018e+01 </wgt>
<wgt id='1247'> +8.3158465e+01 </wgt>
<wgt id='1248'> +8.2928177e+01 </wgt>
<wgt id='1249'> +8.2540569e+01 </wgt>
<wgt id='1250'> +8.3428334e+01 </wgt>
<wgt id='1251'> +8.2818477e+01 </wgt>
<wgt id='1252'> +8.2705200e+01 </wgt>
<wgt id='1253'> +8.2625561e+01 </wgt>
<wgt id='1254'> +8.3129437e+01 </wgt>
<wgt id='1255'> +8.2706652e+01 </wgt>
<wgt id='1256'> +8.2539963e+01 </wgt>
<wgt id='1257'> +8.3211732e+01 </wgt>
<wgt id='1258'> +8.2949156e+01 </wgt>
<wgt id='1259'> +8.2682648e+01 </wgt>
<wgt id='1260'> +8.2917202e+01 </wgt>
<wgt id='1261'> +8.2995894e+01 </wgt>
<wgt id='1262'> +8.2986357e+01 </wgt>
<wgt id='1263'> +8.3097593e+01 </wgt>
<wgt id='1264'> +8.2930924e+01 </wgt>
<wgt id='1265'> +8.3088962e+01 </wgt>
<wgt id='1266'> +8.3286461e+01 </wgt>
<wgt id='1267'> +8.3161630e+01 </wgt>
<wgt id='1268'> +8.2887700e+01 </wgt>
<wgt id='1269'> +8.2850124e+01 </wgt>
<wgt id='1270'> +8.3128196e+01 </wgt>
<wgt id='1271'> +8.3127281e+01 </wgt>
<wgt id='1272'> +8.3169331e+01 </wgt>
<wgt id='1273'> +8.3016506e+01 </wgt>
<wgt id='1274'> +8.2947708e+01 </wgt>
<wgt id='1275'> +8.2984478e+01 </wgt>
<wgt id='1276'> +8.3051296e+01 </wgt>
<wgt id='1277'> +8.3126673e+01 </wgt>
<wgt id='1278'> +8.3144200e+01 </wgt>
<wgt id='1279'> +8.3051662e+01 </wgt>
<wgt id='1280'> +8.2913775e+01 </wgt>
<wgt id='1281'> +8.3158759e+01 </wgt>
<wgt id='1282'> +8.2990390e+01 </wgt>
<wgt id='1283'> +8.2965697e+01 </wgt>
<wgt id='1284'> +8.2988042e+01 </wgt>
<wgt id='1285'> +8.3033382e+01 </wgt>
<wgt id='1286'> +8.2978149e+01 </wgt>
<wgt id='1287'> +8.2976290e+01 </wgt>
<wgt id='1288'> +8.3068051e+01 </wgt>
<wgt id='1289'> +8.3116838e+01 </wgt>
<wgt id='1290'> +8.3245024e+01 </wgt>
<wgt id='1291'> +8.3066596e+01 </wgt>
<wgt id='1292'> +8.3012255e+01 </wgt>
<wgt id='1293'> +8.3089299e+01 </wgt>
<wgt id='1294'> +8.2941850e+01 </wgt>
<wgt id='1295'> +8.3157789e+01 </wgt>
<wgt id='1296'> +8.3100799e+01 </wgt>
<wgt id='1297'> +8.2977523e+01 </wgt>
<wgt id='1298'> +8.2983872e+01 </wgt>
<wgt id='1299'> +8.3031579e+01 </wgt>
<wgt id='1300'> +8.3039915e+01 </wgt>
<wgt id='1301'> +8.3062248e+01 </wgt>
<wgt id='1302'> +8.3102153e+01 </wgt>
<wgt id='1303'> +8.3000363e+01 </wgt>
<wgt id='1304'> +8.3123953e+01 </wgt>
<wgt id='1305'> +8.3068460e+01 </wgt>
<wgt id='1306'> +8.3003923e+01 </wgt>
<wgt id='1307'> +8.3051726e+01 </wgt>
<wgt id='1308'> +8.3070962e+01 </wgt>
<wgt id='1309'> +8.3010641e+01 </wgt>
<wgt id='1310'> +8.3047643e+01 </wgt>
<wgt id='1311'> +8.3036487e+01 </wgt>
<wgt id='1312'> +8.3062808e+01 </wgt>
<wgt id='1313'> +8.3052006e+01 </wgt>
<wgt id='1314'> +8.2994161e+01 </wgt>
<wgt id='1315'> +8.3024939e+01 </wgt>
<wgt id='1316'> +8.3076433e+01 </wgt>
<wgt id='1317'> +8.1923406e+01 </wgt>
<wgt id='1318'> +8.4423721e+01 </wgt>
<wgt id='1319'> +3.7052623e+01 </wgt>
<wgt id='1320'> +7.9190046e+01 </wgt>
<wgt id='1321'> +7.9425689e+01 </wgt>
<wgt id='1322'> +7.9478249e+01 </wgt>
<wgt id='1323'> +8.2250846e+01 </wgt>
<wgt id='1324'> +7.7625257e+01 </wgt>
<wgt id='1325'> +8.0135357e+01 </wgt>
<wgt id='1326'> +7.8606242e+01 </wgt>
<wgt id='1327'> +8.0704210e+01 </wgt>
<wgt id='1328'> +7.8357664e+01 </wgt>
<wgt id='1329'> +7.7356679e+01 </wgt>
<wgt id='1330'> +8.0519573e+01 </wgt>
<wgt id='1331'> +7.8833003e+01 </wgt>
<wgt id='1332'> +7.9668021e+01 </wgt>
<wgt id='1333'> +7.7415468e+01 </wgt>
<wgt id='1334'> +7.9763255e+01 </wgt>
<wgt id='1335'> +7.2076447e+01 </wgt>
<wgt id='1336'> +8.6885212e+01 </wgt>
<wgt id='1337'> +7.7946150e+01 </wgt>
<wgt id='1338'> +8.0615913e+01 </wgt>
<wgt id='1339'> +7.9446040e+01 </wgt>
<wgt id='1340'> +7.8837885e+01 </wgt>
<wgt id='1341'> +7.8490883e+01 </wgt>
<wgt id='1342'> +8.0456224e+01 </wgt>
<wgt id='1343'> +7.8825342e+01 </wgt>
<wgt id='1344'> +7.9456244e+01 </wgt>
<wgt id='1345'> +7.8317215e+01 </wgt>
<wgt id='1346'> +8.0009308e+01 </wgt>
<wgt id='1347'> +7.9072126e+01 </wgt>
<wgt id='1348'> +7.9288775e+01 </wgt>
<wgt id='1349'> +7.8886766e+01 </wgt>
<wgt id='1350'> +7.9289082e+01 </wgt>
<wgt id='1351'> +7.9290673e+01 </wgt>
<wgt id='1352'> +7.9038576e+01 </wgt>
<wgt id='1353'> +7.9181463e+01 </wgt>
<wgt id='1354'> +7.9143774e+01 </wgt>
<wgt id='1355'> +8.0538100e+01 </wgt>
<wgt id='1356'> +7.7899080e+01 </wgt>
<wgt id='1357'> +7.9647865e+01 </wgt>
<wgt id='1358'> +7.8009095e+01 </wgt>
<wgt id='1359'> +7.9454503e+01 </wgt>
<wgt id='1360'> +7.7776363e+01 </wgt>
<wgt id='1361'> +7.9610227e+01 </wgt>
<wgt id='1362'> +7.8893457e+01 </wgt>
<wgt id='1363'> +7.9417332e+01 </wgt>
<wgt id='1364'> +7.8698779e+01 </wgt>
<wgt id='1365'> +7.6743831e+01 </wgt>
<wgt id='1366'> +7.9799359e+01 </wgt>
<wgt id='1367'> +7.7840802e+01 </wgt>
<wgt id='1368'> +7.9991865e+01 </wgt>
<wgt id='1369'> +8.0249695e+01 </wgt>
<wgt id='1370'> +7.6133463e+01 </wgt>
<wgt id='1371'> +7.8672425e+01 </wgt>
<wgt id='1372'> +7.8542669e+01 </wgt>
<wgt id='1373'> +7.6759951e+01 </wgt>
<wgt id='1374'> +7.9751834e+01 </wgt>
<wgt id='1375'> +8.2317996e+01 </wgt>
<wgt id='1376'> +7.2759244e+01 </wgt>
<wgt id='1377'> +7.7691847e+01 </wgt>
<wgt id='1378'> +8.0380445e+01 </wgt>
<wgt id='1379'> +7.9735687e+01 </wgt>
<wgt id='1380'> +7.8367784e+01 </wgt>
<wgt id='1381'> +8.0602783e+01 </wgt>
<wgt id='1382'> +6.5985127e+01 </wgt>
<wgt id='1383'> +8.1060919e+01 </wgt>
<wgt id='1384'> +8.1745332e+01 </wgt>
<wgt id='1385'> +8.7319453e+01 </wgt>
<wgt id='1386'> +8.7542210e+01 </wgt>
<wgt id='1387'> +8.7069329e+01 </wgt>
<wgt id='1388'> +8.6765600e+01 </wgt>
<wgt id='1389'> +8.8267905e+01 </wgt>
<wgt id='1390'> +8.7302623e+01 </wgt>
<wgt id='1391'> +8.7337897e+01 </wgt>
<wgt id='1392'> +8.7534378e+01 </wgt>
<wgt id='1393'> +8.7167028e+01 </wgt>
<wgt id='1394'> +8.6914643e+01 </wgt>
<wgt id='1395'> +8.7820669e+01 </wgt>
<wgt id='1396'> +8.6475176e+01 </wgt>
<wgt id='1397'> +8.7755101e+01 </wgt>
<wgt id='1398'> +8.7193135e+01 </wgt>
<wgt id='1399'> +8.7401523e+01 </wgt>
<wgt id='1400'> +8.7360833e+01 </wgt>
<wgt id='1401'> +8.7273738e+01 </wgt>
<wgt id='1402'> +8.6803933e+01 </wgt>
<wgt id='1403'> +8.7554847e+01 </wgt>
<wgt id='1404'> +8.8547886e+01 </wgt>
<wgt id='1405'> +8.6717796e+01 </wgt>
<wgt id='1406'> +8.8920097e+01 </wgt>
<wgt id='1407'> +8.4449967e+01 </wgt>
<wgt id='1408'> +8.9074319e+01 </wgt>
<wgt id='1409'> +8.3794035e+01 </wgt>
<wgt id='1410'> +8.7630972e+01 </wgt>
<wgt id='1411'> +8.6483641e+01 </wgt>
<wgt id='1412'> +8.6893484e+01 </wgt>
<wgt id='1413'> +8.7831290e+01 </wgt>
<wgt id='1414'> +8.7361031e+01 </wgt>
<wgt id='1415'> +8.7317220e+01 </wgt>
<wgt id='1416'> +8.7529986e+01 </wgt>
<wgt id='1417'> +8.7192285e+01 </wgt>
<wgt id='1418'> +8.7486072e+01 </wgt>
<wgt id='1419'> +8.6948240e+01 </wgt>
<wgt id='1420'> +8.6943889e+01 </wgt>
<wgt id='1421'> +8.7223554e+01 </wgt>
<wgt id='1422'> +8.6513015e+01 </wgt>
<wgt id='1423'> +8.8159217e+01 </wgt>
<wgt id='1424'> +8.7300713e+01 </wgt>
<wgt id='1425'> +8.7103552e+01 </wgt>
<wgt id='1426'> +8.5742950e+01 </wgt>
<wgt id='1427'> +8.6886796e+01 </wgt>
<wgt id='1428'> +8.6300386e+01 </wgt>
<wgt id='1429'> +8.8140751e+01 </wgt>
<wgt id='1430'> +8.6444727e+01 </wgt>
<wgt id='1431'> +8.5717226e+01 </wgt>
<wgt id='1432'> +8.6690878e+01 </wgt>
<wgt id='1433'> +8.5154308e+01 </wgt>
<wgt id='1434'> +8.6867951e+01 </wgt>
<wgt id='1435'> +8.7491363e+01 </wgt>
<wgt id='1436'> +8.4712649e+01 </wgt>
<wgt id='1437'> +8.4699515e+01 </wgt>
<wgt id='1438'> +8.4739036e+01 </wgt>
<wgt id='1439'> +8.4713445e+01 </wgt>
<wgt id='1440'> +8.4693121e+01 </wgt>
<wgt id='1441'> +8.4141207e+01 </wgt>
<wgt id='1442'> +8.4016224e+01 </wgt>
<wgt id='1443'> +8.4664063e+01 </wgt>
<wgt id='1444'> +8.4429350e+01 </wgt>
<wgt id='1445'> +8.4469080e+01 </wgt>
<wgt id='1446'> +8.4850362e+01 </wgt>
<wgt id='1447'> +8.4694151e+01 </wgt>
<wgt id='1448'> +8.4944421e+01 </wgt>
<wgt id='1449'> +8.4643982e+01 </wgt>
<wgt id='1450'> +8.5173188e+01 </wgt>
<wgt id='1451'> +8.4746331e+01 </wgt>
<wgt id='1452'> +8.4518958e+01 </wgt>
<wgt id='1453'> +8.4736180e+01 </wgt>
<wgt id='1454'> +8.4887789e+01 </wgt>
<wgt id='1455'> +8.4585018e+01 </wgt>
<wgt id='1456'> +8.4661580e+01 </wgt>
<wgt id='1457'> +8.4065005e+01 </wgt>
<wgt id='1458'> +8.4995016e+01 </wgt>
<wgt id='1459'> +8.4433852e+01 </wgt>
<wgt id='1460'> +8.5084390e+01 </wgt>
<wgt id='1461'> +8.4940564e+01 </wgt>
<wgt id='1462'> +8.4946945e+01 </wgt>
<wgt id='1463'> +8.4510839e+01 </wgt>
<wgt id='1464'> +8.5506519e+01 </wgt>
<wgt id='1465'> +8.5261292e+01 </wgt>
<wgt id='1466'> +7.8600813e+01 </wgt>
<wgt id='1467'> +7.8682205e+01 </wgt>
<wgt id='1468'> +7.9559722e+01 </wgt>
<wgt id='1469'> +7.5806374e+01 </wgt>
<wgt id='1470'> +7.9471657e+01 </wgt>
<wgt id='1471'> +7.8060940e+01 </wgt>
<wgt id='1472'> +7.9267836e+01 </wgt>
<wgt id='1473'> +7.9110323e+01 </wgt>
<wgt id='1474'> +8.1219365e+01 </wgt>
<wgt id='1475'> +7.7716111e+01 </wgt>
<wgt id='1476'> +7.7974112e+01 </wgt>
<wgt id='1477'> +8.0805789e+01 </wgt>
<wgt id='1478'> +7.7635685e+01 </wgt>
<wgt id='1479'> +7.8077975e+01 </wgt>
<wgt id='1480'> +7.9860328e+01 </wgt>
<wgt id='1481'> +7.7769695e+01 </wgt>
<wgt id='1482'> +8.0702648e+01 </wgt>
<wgt id='1483'> +7.7152830e+01 </wgt>
<wgt id='1484'> +7.7705223e+01 </wgt>
<wgt id='1485'> +7.8979510e+01 </wgt>
<wgt id='1486'> +7.9226280e+01 </wgt>
<wgt id='1487'> +7.8557438e+01 </wgt>
<wgt id='1488'> +7.8704535e+01 </wgt>
<wgt id='1489'> +7.7992585e+01 </wgt>
<wgt id='1490'> +7.8745420e+01 </wgt>
<wgt id='1491'> +7.9123358e+01 </wgt>
<wgt id='1492'> +7.8349064e+01 </wgt>
<wgt id='1493'> +7.8771755e+01 </wgt>
<wgt id='1494'> +7.8368184e+01 </wgt>
<wgt id='1495'> +7.8466481e+01 </wgt>
<wgt id='1496'> +7.8583272e+01 </wgt>
<wgt id='1497'> +7.8500978e+01 </wgt>
<wgt id='1498'> +7.8713729e+01 </wgt>
<wgt id='1499'> +7.8649413e+01 </wgt>
<wgt id='1500'> +7.8752701e+01 </wgt>
<wgt id='1501'> +7.8988898e+01 </wgt>
<wgt id='1502'> +7.8343459e+01 </wgt>
<wgt id='1503'> +7.8659159e+01 </wgt>
<wgt id='1504'> +7.8458073e+01 </wgt>
<wgt id='1505'> +7.8763464e+01 </wgt>
<wgt id='1506'> +7.8757346e+01 </wgt>
<wgt id='1507'> +7.8443210e+01 </wgt>
<wgt id='1508'> +7.8724613e+01 </wgt>
<wgt id='1509'> +7.8480658e+01 </wgt>
<wgt id='1510'> +7.8688395e+01 </wgt>
<wgt id='1511'> +7.8860320e+01 </wgt>
<wgt id='1512'> +7.8500877e+01 </wgt>
<wgt id='1513'> +7.8483848e+01 </wgt>
<wgt id='1514'> +7.8572437e+01 </wgt>
<wgt id='1515'> +7.8623759e+01 </wgt>
<wgt id='1516'> +7.8530981e+01 </wgt>
<wgt id='1517'> +7.8704459e+01 </wgt>
<wgt id='1518'> +7.8594718e+01 </wgt>
<wgt id='1519'> +7.8448854e+01 </wgt>
<wgt id='1520'> +7.8772663e+01 </wgt>
<wgt id='1521'> +7.8831682e+01 </wgt>
<wgt id='1522'> +7.8631700e+01 </wgt>
<wgt id='1523'> +7.8553347e+01 </wgt>
<wgt id='1524'> +7.8703753e+01 </wgt>
<wgt id='1525'> +7.8651602e+01 </wgt>
<wgt id='1526'> +7.8441239e+01 </wgt>
<wgt id='1527'> +7.8598752e+01 </wgt>
<wgt id='1528'> +7.8567294e+01 </wgt>
<wgt id='1529'> +7.8619098e+01 </wgt>
<wgt id='1530'> +7.8559076e+01 </wgt>
<wgt id='1531'> +7.8566957e+01 </wgt>
<wgt id='1532'> +7.8650497e+01 </wgt>
<wgt id='1533'> +7.8680209e+01 </wgt>
<wgt id='1534'> +7.8591261e+01 </wgt>
<wgt id='1535'> +7.8700835e+01 </wgt>
<wgt id='1536'> +7.8643490e+01 </wgt>
<wgt id='1537'> +7.8582806e+01 </wgt>
<wgt id='1538'> +7.8609466e+01 </wgt>
<wgt id='1539'> +7.8604445e+01 </wgt>
<wgt id='1540'> +7.8603596e+01 </wgt>
<wgt id='1541'> +7.8595376e+01 </wgt>
<wgt id='1542'> +7.8595433e+01 </wgt>
<wgt id='1543'> +7.8593196e+01 </wgt>
<wgt id='1544'> +7.8591617e+01 </wgt>
<wgt id='1545'> +7.8597854e+01 </wgt>
<wgt id='1546'> +7.8624668e+01 </wgt>
<wgt id='1547'> +7.8624394e+01 </wgt>
<wgt id='1548'> +7.8553277e+01 </wgt>
<wgt id='1549'> +7.8635640e+01 </wgt>
<wgt id='1550'> +7.8666475e+01 </wgt>
<wgt id='1551'> +7.8603983e+01 </wgt>
<wgt id='1552'> +7.8591650e+01 </wgt>
<wgt id='1553'> +7.8578351e+01 </wgt>
<wgt id='1554'> +7.8593963e+01 </wgt>
<wgt id='1555'> +7.8635321e+01 </wgt>
<wgt id='1556'> +7.8599327e+01 </wgt>
<wgt id='1557'> +7.8574918e+01 </wgt>
<wgt id='1558'> +7.8638473e+01 </wgt>
<wgt id='1559'> +7.8583439e+01 </wgt>
<wgt id='1560'> +7.8606610e+01 </wgt>
<wgt id='1561'> +7.8606017e+01 </wgt>
<wgt id='1562'> +7.8565483e+01 </wgt>
<wgt id='1563'> +7.8597228e+01 </wgt>
<wgt id='1564'> +7.8593071e+01 </wgt>
<wgt id='1565'> +7.8625424e+01 </wgt>
<wgt id='1566'> +7.8589717e+01 </wgt>
<wgt id='1567'> +7.7599036e+01 </wgt>
<wgt id='1568'> +7.9820924e+01 </wgt>
<wgt id='1569'> +7.9698609e+01 </wgt>
<wgt id='1570'> +8.0598653e+01 </wgt>
<wgt id='1571'> +7.9991867e+01 </wgt>
<wgt id='1572'> +7.8992430e+01 </wgt>
<wgt id='1573'> +7.7997319e+01 </wgt>
<wgt id='1574'> +7.7826838e+01 </wgt>
<wgt id='1575'> +7.8164039e+01 </wgt>
<wgt id='1576'> +7.8902294e+01 </wgt>
<wgt id='1577'> +7.9899414e+01 </wgt>
<wgt id='1578'> +7.9423842e+01 </wgt>
<wgt id='1579'> +8.1056546e+01 </wgt>
<wgt id='1580'> +7.6824927e+01 </wgt>
<wgt id='1581'> +7.8269688e+01 </wgt>
<wgt id='1582'> +7.8325481e+01 </wgt>
<wgt id='1583'> +7.8723297e+01 </wgt>
<wgt id='1584'> +7.9520241e+01 </wgt>
<wgt id='1585'> +7.9331726e+01 </wgt>
<wgt id='1586'> +8.1401104e+01 </wgt>
<wgt id='1587'> +7.7960036e+01 </wgt>
<wgt id='1588'> +8.0444696e+01 </wgt>
<wgt id='1589'> +8.0303511e+01 </wgt>
<wgt id='1590'> +8.0005866e+01 </wgt>
<wgt id='1591'> +8.0544857e+01 </wgt>
<wgt id='1592'> +8.0561507e+01 </wgt>
<wgt id='1593'> +7.9148841e+01 </wgt>
<wgt id='1594'> +7.9793965e+01 </wgt>
<wgt id='1595'> +7.9611220e+01 </wgt>
<wgt id='1596'> +7.9681810e+01 </wgt>
<wgt id='1597'> +7.9972487e+01 </wgt>
<wgt id='1598'> +7.9653188e+01 </wgt>
<wgt id='1599'> +7.9766289e+01 </wgt>
<wgt id='1600'> +7.9614139e+01 </wgt>
<wgt id='1601'> +8.0021935e+01 </wgt>
<wgt id='1602'> +7.9554984e+01 </wgt>
<wgt id='1603'> +7.9781981e+01 </wgt>
<wgt id='1604'> +8.0122027e+01 </wgt>
<wgt id='1605'> +7.9679383e+01 </wgt>
<wgt id='1606'> +7.9670479e+01 </wgt>
<wgt id='1607'> +7.9803879e+01 </wgt>
<wgt id='1608'> +7.9775442e+01 </wgt>
<wgt id='1609'> +7.9222933e+01 </wgt>
<wgt id='1610'> +7.9642675e+01 </wgt>
<wgt id='1611'> +7.9530655e+01 </wgt>
<wgt id='1612'> +7.9381246e+01 </wgt>
<wgt id='1613'> +7.9743270e+01 </wgt>
<wgt id='1614'> +7.9749776e+01 </wgt>
<wgt id='1615'> +7.9748214e+01 </wgt>
<wgt id='1616'> +7.9476260e+01 </wgt>
<wgt id='1617'> +7.9895480e+01 </wgt>
<wgt id='1618'> +7.9652404e+01 </wgt>
<wgt id='1619'> +7.9454752e+01 </wgt>
<wgt id='1620'> +7.9521387e+01 </wgt>
<wgt id='1621'> +7.9836828e+01 </wgt>
<wgt id='1622'> +7.9789184e+01 </wgt>
<wgt id='1623'> +7.9617140e+01 </wgt>
<wgt id='1624'> +7.9719845e+01 </wgt>
<wgt id='1625'> +7.9715746e+01 </wgt>
<wgt id='1626'> +7.9758286e+01 </wgt>
<wgt id='1627'> +7.9627388e+01 </wgt>
<wgt id='1628'> +7.9588356e+01 </wgt>
<wgt id='1629'> +7.9695934e+01 </wgt>
<wgt id='1630'> +7.9696429e+01 </wgt>
<wgt id='1631'> +7.9616433e+01 </wgt>
<wgt id='1632'> +7.9688626e+01 </wgt>
<wgt id='1633'> +7.9691536e+01 </wgt>
<wgt id='1634'> +7.9648623e+01 </wgt>
<wgt id='1635'> +7.9747161e+01 </wgt>
<wgt id='1636'> +7.9717713e+01 </wgt>
<wgt id='1637'> +7.9752017e+01 </wgt>
<wgt id='1638'> +7.9696966e+01 </wgt>
<wgt id='1639'> +7.9642827e+01 </wgt>
<wgt id='1640'> +7.9770205e+01 </wgt>
<wgt id='1641'> +7.9709681e+01 </wgt>
<wgt id='1642'> +7.9725590e+01 </wgt>
<wgt id='1643'> +7.9709320e+01 </wgt>
<wgt id='1644'> +7.9693584e+01 </wgt>
<wgt id='1645'> +7.9708634e+01 </wgt>
<wgt id='1646'> +7.9723094e+01 </wgt>
<wgt id='1647'> +7.9740615e+01 </wgt>
<wgt id='1648'> +7.9701717e+01 </wgt>
<wgt id='1649'> +7.9775864e+01 </wgt>
<wgt id='1650'> +7.9670329e+01 </wgt>
<wgt id='1651'> +7.9718876e+01 </wgt>
<wgt id='1652'> +7.9663043e+01 </wgt>
<wgt id='1653'> +7.9639389e+01 </wgt>
<wgt id='1654'> +7.9710511e+01 </wgt>
<wgt id='1655'> +7.9709971e+01 </wgt>
<wgt id='1656'> +7.9659824e+01 </wgt>
<wgt id='1657'> +7.9677724e+01 </wgt>
<wgt id='1658'> +7.9697735e+01 </wgt>
<wgt id='1659'> +7.9729957e+01 </wgt>
<wgt id='1660'> +7.9701345e+01 </wgt>
<wgt id='1661'> +7.9730547e+01 </wgt>
<wgt id='1662'> +7.9687674e+01 </wgt>
<wgt id='1663'> +7.9708737e+01 </wgt>
<wgt id='1664'> +7.9725246e+01 </wgt>
<wgt id='1665'> +7.9694898e+01 </wgt>
<wgt id='1666'> +7.9721923e+01 </wgt>
<wgt id='1667'> +7.9701089e+01 </wgt>
<wgt id='1668'> +7.9697174e+01 </wgt>
<wgt id='1669'> +7.9696132e+01 </wgt>
<wgt id='1670'> +7.8603546e+01 </wgt>
<wgt id='1671'> +8.0227546e+01 </wgt>
<wgt id='1672'> +7.8599422e+01 </wgt>
<wgt id='1673'> +7.7913297e+01 </wgt>
<wgt id='1674'> +8.2666312e+01 </wgt>
<wgt id='1675'> +7.8585782e+01 </wgt>
<wgt id='1676'> +7.8984229e+01 </wgt>
<wgt id='1677'> +7.9874944e+01 </wgt>
<wgt id='1678'> +7.8928529e+01 </wgt>
<wgt id='1679'> +7.8455637e+01 </wgt>
<wgt id='1680'> +7.8759120e+01 </wgt>
<wgt id='1681'> +7.7701425e+01 </wgt>
<wgt id='1682'> +7.8586166e+01 </wgt>
<wgt id='1683'> +8.1058468e+01 </wgt>
<wgt id='1684'> +7.8477602e+01 </wgt>
<wgt id='1685'> +7.8327644e+01 </wgt>
<wgt id='1686'> +7.9666894e+01 </wgt>
<wgt id='1687'> +7.8944303e+01 </wgt>
<wgt id='1688'> +7.8933154e+01 </wgt>
<wgt id='1689'> +7.8059885e+01 </wgt>
<wgt id='1690'> +7.8467562e+01 </wgt>
<wgt id='1691'> +7.8654938e+01 </wgt>
<wgt id='1692'> +7.8217106e+01 </wgt>
<wgt id='1693'> +7.8905130e+01 </wgt>
<wgt id='1694'> +7.8358848e+01 </wgt>
<wgt id='1695'> +7.8464955e+01 </wgt>
<wgt id='1696'> +7.8578781e+01 </wgt>
<wgt id='1697'> +7.8613214e+01 </wgt>
<wgt id='1698'> +7.7812740e+01 </wgt>
<wgt id='1699'> +7.8538871e+01 </wgt>
<wgt id='1700'> +7.8292419e+01 </wgt>
<wgt id='1701'> +7.9204097e+01 </wgt>
<wgt id='1702'> +7.8487817e+01 </wgt>
<wgt id='1703'> +7.7599036e+01 </wgt>
<wgt id='1704'> +7.9820924e+01 </wgt>
<wgt id='1705'> +7.9696875e+01 </wgt>
<wgt id='1706'> +8.2070566e+01 </wgt>
<wgt id='1707'> +7.7925391e+01 </wgt>
<wgt id='1708'> +7.9811801e+01 </wgt>
<wgt id='1709'> +8.1791574e+01 </wgt>
<wgt id='1710'> +7.8747150e+01 </wgt>
<wgt id='1711'> +7.9827012e+01 </wgt>
<wgt id='1712'> +7.9748112e+01 </wgt>
<wgt id='1713'> +8.0079805e+01 </wgt>
<wgt id='1714'> +8.1229640e+01 </wgt>
<wgt id='1715'> +7.9873503e+01 </wgt>
<wgt id='1716'> +7.7485871e+01 </wgt>
<wgt id='1717'> +7.9396567e+01 </wgt>
<wgt id='1718'> +7.9763497e+01 </wgt>
<wgt id='1719'> +7.9939534e+01 </wgt>
<wgt id='1720'> +7.9888723e+01 </wgt>
<wgt id='1721'> +7.9811149e+01 </wgt>
<wgt id='1722'> +8.0234411e+01 </wgt>
<wgt id='1723'> +7.9862740e+01 </wgt>
<wgt id='1724'> +8.0148350e+01 </wgt>
<wgt id='1725'> +7.9407857e+01 </wgt>
<wgt id='1726'> +7.9723329e+01 </wgt>
<wgt id='1727'> +7.9665160e+01 </wgt>
<wgt id='1728'> +7.9539648e+01 </wgt>
<wgt id='1729'> +7.9138278e+01 </wgt>
<wgt id='1730'> +8.0162097e+01 </wgt>
<wgt id='1731'> +7.9927138e+01 </wgt>
<wgt id='1732'> +7.8891200e+01 </wgt>
<wgt id='1733'> +7.9012413e+01 </wgt>
<wgt id='1734'> +8.0393719e+01 </wgt>
<wgt id='1735'> +7.8568402e+01 </wgt>
<wgt id='1736'> +7.8603546e+01 </wgt>
<wgt id='1737'> +8.0227546e+01 </wgt>
<wgt id='1738'> +8.7235881e+01 </wgt>
<wgt id='1739'> +8.7238163e+01 </wgt>
<wgt id='1740'> +8.7233640e+01 </wgt>
<wgt id='1741'> +8.7336818e+01 </wgt>
<wgt id='1742'> +8.7134930e+01 </wgt>
<wgt id='1743'> +8.7406677e+01 </wgt>
<wgt id='1744'> +8.7065379e+01 </wgt>
<wgt id='1745'> +8.7301412e+01 </wgt>
<wgt id='1746'> +8.7169928e+01 </wgt>
<wgt id='1747'> +8.7502273e+01 </wgt>
<wgt id='1748'> +8.6971317e+01 </wgt>
<wgt id='1749'> +8.7274490e+01 </wgt>
<wgt id='1750'> +8.7209643e+01 </wgt>
<wgt id='1751'> +8.6975652e+01 </wgt>
<wgt id='1752'> +8.7498415e+01 </wgt>
<wgt id='1753'> +8.7134996e+01 </wgt>
<wgt id='1754'> +8.7210123e+01 </wgt>
<wgt id='1755'> +8.7270762e+01 </wgt>
<wgt id='1756'> +8.7163860e+01 </wgt>
<wgt id='1757'> +8.6906967e+01 </wgt>
<wgt id='1758'> +8.7554155e+01 </wgt>
<wgt id='1759'> +8.7316971e+01 </wgt>
<wgt id='1760'> +8.7051590e+01 </wgt>
<wgt id='1761'> +8.7062223e+01 </wgt>
<wgt id='1762'> +8.6977300e+01 </wgt>
<wgt id='1763'> +8.7588231e+01 </wgt>
<wgt id='1764'> +8.7004871e+01 </wgt>
<wgt id='1765'> +8.7238332e+01 </wgt>
<wgt id='1766'> +8.7298290e+01 </wgt>
<wgt id='1767'> +8.7235881e+01 </wgt>
<wgt id='1768'> +8.0270166e+01 </wgt>
<wgt id='1769'> +9.5701248e+01 </wgt>
<wgt id='1770'> +7.7785814e+01 </wgt>
<wgt id='1771'> +9.0483944e+01 </wgt>
<wgt id='1772'> +8.7585376e+01 </wgt>
<wgt id='1773'> +8.6800675e+01 </wgt>
<wgt id='1774'> +8.6970538e+01 </wgt>
<wgt id='1775'> +8.7476948e+01 </wgt>
<wgt id='1776'> +8.6680187e+01 </wgt>
<wgt id='1777'> +8.7775776e+01 </wgt>
<wgt id='1778'> +8.7509350e+01 </wgt>
<wgt id='1779'> +8.7449995e+01 </wgt>
<wgt id='1780'> +8.5273842e+01 </wgt>
<wgt id='1781'> +8.5081934e+01 </wgt>
<wgt id='1782'> +8.5130208e+01 </wgt>
<wgt id='1783'> +8.5029855e+01 </wgt>
<wgt id='1784'> +8.5070011e+01 </wgt>
<wgt id='1785'> +8.5089979e+01 </wgt>
<wgt id='1786'> +8.5247650e+01 </wgt>
<wgt id='1787'> +8.4912548e+01 </wgt>
<wgt id='1788'> +8.5146196e+01 </wgt>
<wgt id='1789'> +8.5011459e+01 </wgt>
<wgt id='1790'> +8.5254626e+01 </wgt>
<wgt id='1791'> +8.4907235e+01 </wgt>
<wgt id='1792'> +8.5244297e+01 </wgt>
<wgt id='1793'> +8.4915987e+01 </wgt>
<wgt id='1794'> +8.4844234e+01 </wgt>
<wgt id='1795'> +8.5314510e+01 </wgt>
<wgt id='1796'> +8.4921097e+01 </wgt>
<wgt id='1797'> +8.5162742e+01 </wgt>
<wgt id='1798'> +8.5135770e+01 </wgt>
<wgt id='1799'> +8.5005844e+01 </wgt>
<wgt id='1800'> +8.4867578e+01 </wgt>
<wgt id='1801'> +8.5286454e+01 </wgt>
<wgt id='1802'> +8.4572725e+01 </wgt>
<wgt id='1803'> +8.5465849e+01 </wgt>
<wgt id='1804'> +8.5530450e+01 </wgt>
<wgt id='1805'> +8.4624520e+01 </wgt>
<wgt id='1806'> +8.5368676e+01 </wgt>
<wgt id='1807'> +8.4606382e+01 </wgt>
<wgt id='1808'> +8.5486536e+01 </wgt>
<wgt id='1809'> +8.4778713e+01 </wgt>
<wgt id='1810'> +8.5082805e+01 </wgt>
<wgt id='1811'> +7.7622295e+01 </wgt>
<wgt id='1812'> +9.4113114e+01 </wgt>
<wgt id='1813'> +7.5047827e+01 </wgt>
<wgt id='1814'> +8.8753099e+01 </wgt>
<wgt id='1815'> +8.6105348e+01 </wgt>
<wgt id='1816'> +8.4526146e+01 </wgt>
<wgt id='1817'> +8.4817233e+01 </wgt>
<wgt id='1818'> +8.5344603e+01 </wgt>
<wgt id='1819'> +8.5076983e+01 </wgt>
<wgt id='1820'> +8.6479758e+01 </wgt>
<wgt id='1821'> +8.5413326e+01 </wgt>
<wgt id='1822'> +8.5089149e+01 </wgt>
<wgt id='1823'> +8.4035997e+01 </wgt>
<wgt id='1824'> +7.8695544e+01 </wgt>
<wgt id='1825'> +7.8674496e+01 </wgt>
<wgt id='1826'> +7.8653463e+01 </wgt>
<wgt id='1827'> +7.8632698e+01 </wgt>
<wgt id='1828'> +7.8611544e+01 </wgt>
<wgt id='1829'> +7.8590504e+01 </wgt>
<wgt id='1830'> +7.8569416e+01 </wgt>
<wgt id='1831'> +7.8548549e+01 </wgt>
<wgt id='1832'> +7.8527531e+01 </wgt>
<wgt id='1833'> +7.8506783e+01 </wgt>
<wgt id='1834'> +7.8485760e+01 </wgt>
<wgt id='1835'> +7.8464593e+01 </wgt>
<wgt id='1836'> +7.8443718e+01 </wgt>
<wgt id='1837'> +7.8422663e+01 </wgt>
<wgt id='1838'> +7.8401774e+01 </wgt>
<wgt id='1839'> +7.8380636e+01 </wgt>
<wgt id='1840'> +7.8359892e+01 </wgt>
<wgt id='1841'> +7.8338872e+01 </wgt>
<wgt id='1842'> +7.8318019e+01 </wgt>
<wgt id='1843'> +7.8296764e+01 </wgt>
<wgt id='1844'> +7.8275867e+01 </wgt>
<wgt id='1845'> +7.8254860e+01 </wgt>
<wgt id='1846'> +7.8234017e+01 </wgt>
<wgt id='1847'> +7.8213236e+01 </wgt>
<wgt id='1848'> +7.8192177e+01 </wgt>
<wgt id='1849'> +7.8171292e+01 </wgt>
<wgt id='1850'> +7.8150267e+01 </wgt>
<wgt id='1851'> +7.8129303e+01 </wgt>
<wgt id='1852'> +7.8108284e+01 </wgt>
<wgt id='1853'> +7.8087528e+01 </wgt>
<wgt id='1854'> +7.8066513e+01 </wgt>
<wgt id='1855'> +7.8989026e+01 </wgt>
<wgt id='1856'> +7.9870794e+01 </wgt>
<wgt id='1857'> +7.9278895e+01 </wgt>
<wgt id='1858'> +7.8286810e+01 </wgt>
<wgt id='1859'> +7.7296504e+01 </wgt>
<wgt id='1860'> +7.7128569e+01 </wgt>
<wgt id='1861'> +7.7472622e+01 </wgt>
<wgt id='1862'> +7.8207527e+01 </wgt>
<wgt id='1863'> +7.9188578e+01 </wgt>
<wgt id='1864'> +7.8716567e+01 </wgt>
<wgt id='1865'> +8.0333340e+01 </wgt>
<wgt id='1866'> +7.6146190e+01 </wgt>
<wgt id='1867'> +7.7577087e+01 </wgt>
<wgt id='1868'> +7.7629452e+01 </wgt>
<wgt id='1869'> +7.8022874e+01 </wgt>
<wgt id='1870'> +7.8799006e+01 </wgt>
<wgt id='1871'> +7.8636040e+01 </wgt>
<wgt id='1872'> +8.0674382e+01 </wgt>
<wgt id='1873'> +7.7259845e+01 </wgt>
<wgt id='1874'> +7.9738981e+01 </wgt>
<wgt id='1875'> +7.9596277e+01 </wgt>
<wgt id='1876'> +7.9288782e+01 </wgt>
<wgt id='1877'> +7.9828927e+01 </wgt>
<wgt id='1878'> +7.9847252e+01 </wgt>
<wgt id='1879'> +7.8436748e+01 </wgt>
<wgt id='1880'> +7.9077454e+01 </wgt>
<wgt id='1881'> +7.8895426e+01 </wgt>
<wgt id='1882'> +7.8979757e+01 </wgt>
<wgt id='1883'> +7.9264644e+01 </wgt>
<wgt id='1884'> +7.8940854e+01 </wgt>
<wgt id='1885'> +7.9050800e+01 </wgt>
<wgt id='1886'> +7.8913009e+01 </wgt>
<wgt id='1887'> +7.9306003e+01 </wgt>
<wgt id='1888'> +7.8843210e+01 </wgt>
<wgt id='1889'> +7.9071994e+01 </wgt>
<wgt id='1890'> +7.9407007e+01 </wgt>
<wgt id='1891'> +7.8970789e+01 </wgt>
<wgt id='1892'> +7.8961514e+01 </wgt>
<wgt id='1893'> +7.9092280e+01 </wgt>
<wgt id='1894'> +7.9061233e+01 </wgt>
<wgt id='1895'> +7.8516708e+01 </wgt>
<wgt id='1896'> +7.8932693e+01 </wgt>
<wgt id='1897'> +7.8822349e+01 </wgt>
<wgt id='1898'> +7.8676982e+01 </wgt>
<wgt id='1899'> +7.9032788e+01 </wgt>
<wgt id='1900'> +7.9039981e+01 </wgt>
<wgt id='1901'> +7.9040212e+01 </wgt>
<wgt id='1902'> +7.8767889e+01 </wgt>
<wgt id='1903'> +7.9186029e+01 </wgt>
<wgt id='1904'> +7.8943343e+01 </wgt>
<wgt id='1905'> +7.8747032e+01 </wgt>
<wgt id='1906'> +7.8812135e+01 </wgt>
<wgt id='1907'> +7.9125534e+01 </wgt>
<wgt id='1908'> +7.9078033e+01 </wgt>
<wgt id='1909'> +7.8909784e+01 </wgt>
<wgt id='1910'> +7.9011437e+01 </wgt>
<wgt id='1911'> +7.9003011e+01 </wgt>
<wgt id='1912'> +7.9048311e+01 </wgt>
<wgt id='1913'> +7.8920173e+01 </wgt>
<wgt id='1914'> +7.8880829e+01 </wgt>
<wgt id='1915'> +7.8986892e+01 </wgt>
<wgt id='1916'> +7.8987158e+01 </wgt>
<wgt id='1917'> +7.8908331e+01 </wgt>
<wgt id='1918'> +7.8977504e+01 </wgt>
<wgt id='1919'> +7.8984249e+01 </wgt>
<wgt id='1920'> +7.8938885e+01 </wgt>
<wgt id='1921'> +7.9036030e+01 </wgt>
<wgt id='1922'> +7.9006769e+01 </wgt>
<wgt id='1923'> +7.9041216e+01 </wgt>
<wgt id='1924'> +7.8985132e+01 </wgt>
<wgt id='1925'> +7.8932920e+01 </wgt>
<wgt id='1926'> +7.9060770e+01 </wgt>
<wgt id='1927'> +7.8998598e+01 </wgt>
<wgt id='1928'> +7.9015472e+01 </wgt>
<wgt id='1929'> +7.8999484e+01 </wgt>
<wgt id='1930'> +7.8984856e+01 </wgt>
<wgt id='1931'> +7.9000779e+01 </wgt>
<wgt id='1932'> +7.9013569e+01 </wgt>
<wgt id='1933'> +7.9031174e+01 </wgt>
<wgt id='1934'> +7.8991933e+01 </wgt>
<wgt id='1935'> +7.9064683e+01 </wgt>
<wgt id='1936'> +7.8962468e+01 </wgt>
<wgt id='1937'> +7.9009977e+01 </wgt>
<wgt id='1938'> +7.8954380e+01 </wgt>
<wgt id='1939'> +7.8929561e+01 </wgt>
<wgt id='1940'> +7.9000970e+01 </wgt>
<wgt id='1941'> +7.9002018e+01 </wgt>
<wgt id='1942'> +7.8949550e+01 </wgt>
<wgt id='1943'> +7.8967188e+01 </wgt>
<wgt id='1944'> +7.8987118e+01 </wgt>
<wgt id='1945'> +7.9019272e+01 </wgt>
<wgt id='1946'> +7.8990164e+01 </wgt>
<wgt id='1947'> +7.9019326e+01 </wgt>
<wgt id='1948'> +7.8978159e+01 </wgt>
<wgt id='1949'> +7.8997292e+01 </wgt>
<wgt id='1950'> +7.9015646e+01 </wgt>
<wgt id='1951'> +7.8985889e+01 </wgt>
<wgt id='1952'> +7.9012284e+01 </wgt>
<wgt id='1953'> +7.8990932e+01 </wgt>
<wgt id='1954'> +7.8988035e+01 </wgt>
<wgt id='1955'> +7.8986896e+01 </wgt>
<wgt id='1956'> +7.8988374e+01 </wgt>
<wgt id='1957'> +7.8992581e+01 </wgt>
<wgt id='1958'> +7.8989709e+01 </wgt>
<wgt id='1959'> +7.8989825e+01 </wgt>
<wgt id='1960'> +7.8991026e+01 </wgt>
<wgt id='1961'> +7.8989315e+01 </wgt>
<wgt id='1962'> +7.8993325e+01 </wgt>
</rwgt>
</event>
<event npLO=" -1 " npNLO=" 0 ">
 7      0 +1.5146096e+02 4.12775030e+01 7.54677110e-03 1.17670170e-01
       -2 -1    0    0    0  501 +0.0000000000e+00 +0.0000000000e+00 +4.2158752000e+01 4.2158752000e+01 0.0000000000e+00 0.0000e+00 9.0000e+00
        2 -1    0    0  502    0 +0.0000000000e+00 +0.0000000000e+00 -1.1751398000e+02 1.1751398000e+02 0.0000000000e+00 0.0000e+00 9.0000e+00
       23  2    1    2    0    0 +1.7092996000e+00 -1.0687565000e+01 -1.0021464000e+01 9.3448519000e+01 9.2277029000e+01 0.0000e+00 0.0000e+00
       11  1    3    3    0    0 -1.4312927000e+01 +1.5472964000e+01 -1.7146770000e+01 2.7171386000e+01 0.0000000000e+00 0.0000e+00 9.0000e+00
      -11  1    3    3    0    0 +2.9290448000e+01 -3.5351626000e+01 +1.5026984000e+01 4.8306087000e+01 0.0000000000e+00 0.0000e+00 9.0000e+00
       22  1    3    3    0    0 -1.3268221000e+01 +9.1910975000e+00 -7.9016775000e+00 1.7971045000e+01 0.0000000000e+00 0.0000e+00 9.0000e+00
       21  1    1    2  502  501 -1.7092996000e+00 +1.0687565000e+01 -6.5333768000e+01 6.6224218000e+01 0.0000000000e+00 0.0000e+00 9.0000e+00
#aMCatNLO 2  0  0  2  1 0.10925012E+02 0.00000000E+00 -9  6  0 0.00000000E+00 0.00000000E+00 0.00000000E+00 0.00000000E+00 0.00000000E+00
<rwgt>
<wgt id='1001'> +1.5146000e+02 </wgt>
<wgt id='1002'> +1.5146000e+02 </wgt>
<wgt id='1003'> +1.4139000e+02 </wgt>
<wgt id='1004'> +1.5278000e+02 </wgt>
<wgt id='1005'> +1.5655000e+02 </wgt>
<wgt id='1006'> +1.5570000e+02 </wgt>
<wgt id='1007'> +1.4211000e+02 </wgt>
<wgt id='1008'> +1.5088000e+02 </wgt>
<wgt id='1009'> +1.5267000e+02 </wgt>
<wgt id='1010'> +1.4600000e+02 </wgt>
<wgt id='1011'> +1.5073000e+02 </wgt>
<wgt id='1012'> +1.4399000e+02 </wgt>
<wgt id='1013'> +1.5034000e+02 </wgt>
<wgt id='1014'> +1.5156000e+02 </wgt>
<wgt id='1015'> +1.5454000e+02 </wgt>
<wgt id='1016'> +1.5305000e+02 </wgt>
<wgt id='1017'> +1.5021000e+02 </wgt>
<wgt id='1018'> +1.4839000e+02 </wgt>
<wgt id='1019'> +1.5066000e+02 </wgt>
<wgt id='1020'> +1.4575000e+02 </wgt>
<wgt id='1021'> +1.5134000e+02 </wgt>
<wgt id='1022'> +1.5294000e+02 </wgt>
<wgt id='1023'> +1.5647000e+02 </wgt>
<wgt id='1024'> +1.4964000e+02 </wgt>
<wgt id='1025'> +1.5619000e+02 </wgt>
<wgt id='1026'> +1.5936000e+02 </wgt>
<wgt id='1027'> +1.5423000e+02 </wgt>
<wgt id='1028'> +1.4982000e+02 </wgt>
<wgt id='1029'> +1.5099000e+02 </wgt>
<wgt id='1030'> +1.5430000e+02 </wgt>
<wgt id='1031'> +1.5270000e+02 </wgt>
<wgt id='1032'> +1.5262000e+02 </wgt>
<wgt id='1033'> +1.5598000e+02 </wgt>
<wgt id='1034'> +1.4669000e+02 </wgt>
<wgt id='1035'> +1.5109000e+02 </wgt>
<wgt id='1036'> +1.5142000e+02 </wgt>
<wgt id='1037'> +1.5560000e+02 </wgt>
<wgt id='1038'> +1.5295000e+02 </wgt>
<wgt id='1039'> +1.4912000e+02 </wgt>
<wgt id='1040'> +1.4126000e+02 </wgt>
<wgt id='1041'> +1.5222000e+02 </wgt>
<wgt id='1042'> +1.5349000e+02 </wgt>
<wgt id='1043'> +1.5390000e+02 </wgt>
<wgt id='1044'> +1.5347000e+02 </wgt>
<wgt id='1045'> +1.5342000e+02 </wgt>
<wgt id='1046'> +1.4785000e+02 </wgt>
<wgt id='1047'> +1.5268000e+02 </wgt>
<wgt id='1048'> +1.5190000e+02 </wgt>
<wgt id='1049'> +1.4516000e+02 </wgt>
<wgt id='1050'> +1.5117000e+02 </wgt>
<wgt id='1051'> +1.5189000e+02 </wgt>
<wgt id='1052'> +1.5633000e+02 </wgt>
<wgt id='1053'> +1.5355000e+02 </wgt>
<wgt id='1054'> +1.5137000e+02 </wgt>
<wgt id='1055'> +1.4857000e+02 </wgt>
<wgt id='1056'> +1.5396000e+02 </wgt>
<wgt id='1057'> +1.5399000e+02 </wgt>
<wgt id='1058'> +1.4890000e+02 </wgt>
<wgt id='1059'> +1.5496000e+02 </wgt>
<wgt id='1060'> +1.5504000e+02 </wgt>
<wgt id='1061'> +1.5292000e+02 </wgt>
<wgt id='1062'> +1.5140000e+02 </wgt>
<wgt id='1063'> +1.5088000e+02 </wgt>
<wgt id='1064'> +1.5286000e+02 </wgt>
<wgt id='1065'> +1.5241000e+02 </wgt>
<wgt id='1066'> +1.4070000e+02 </wgt>
<wgt id='1067'> +1.5359000e+02 </wgt>
<wgt id='1068'> +1.5431000e+02 </wgt>
<wgt id='1069'> +1.4894000e+02 </wgt>
<wgt id='1070'> +1.5147000e+02 </wgt>
<wgt id='1071'> +1.4894000e+02 </wgt>
<wgt id='1072'> +1.5018000e+02 </wgt>
<wgt id='1073'> +1.5280000e+02 </wgt>
<wgt id='1074'> +1.4833000e+02 </wgt>
<wgt id='1075'> +1.4067000e+02 </wgt>
<wgt id='1076'> +1.5930000e+02 </wgt>
<wgt id='1077'> +1.5334000e+02 </wgt>
<wgt id='1078'> +1.5013000e+02 </wgt>
<wgt id='1079'> +1.5270000e+02 </wgt>
<wgt id='1080'> +1.5002000e+02 </wgt>
<wgt id='1081'> +1.4898000e+02 </wgt>
<wgt id='1082'> +1.5378000e+02 </wgt>
<wgt id='1083'> +1.5422000e+02 </wgt>
<wgt id='1084'> +1.5494000e+02 </wgt>
<wgt id='1085'> +1.5017000e+02 </wgt>
<wgt id='1086'> +1.5375000e+02 </wgt>
<wgt id='1087'> +1.5344000e+02 </wgt>
<wgt id='1088'> +1.5153000e+02 </wgt>
<wgt id='1089'> +1.5394000e+02 </wgt>
<wgt id='1090'> +1.5446000e+02 </wgt>
<wgt id='1091'> +1.5102000e+02 </wgt>
<wgt id='1092'> +1.5560000e+02 </wgt>
<wgt id='1093'> +1.5028000e+02 </wgt>
<wgt id='1094'> +1.4923000e+02 </wgt>
<wgt id='1095'> +1.5066000e+02 </wgt>
<wgt id='1096'> +1.5123000e+02 </wgt>
<wgt id='1097'> +1.4950000e+02 </wgt>
<wgt id='1098'> +1.5034000e+02 </wgt>
<wgt id='1099'> +1.5163000e+02 </wgt>
<wgt id='1100'> +1.5556000e+02 </wgt>
<wgt id='1101'> +1.5298000e+02 </wgt>
<wgt id='1102'> +1.4804000e+02 </wgt>
<wgt id='1103'> +1.4966000e+02 </wgt>
<wgt id='1104'> +1.5293000e+02 </wgt>
<wgt id='1105'> +1.5146096e+02 </wgt>
<wgt id='1106'> +6.8595157e+01 </wgt>
<wgt id='1107'> +8.4562908e+01 </wgt>
<wgt id='1108'> +8.2496331e+01 </wgt>
<wgt id='1109'> +7.4723544e+01 </wgt>
<wgt id='1110'> +9.2117877e+01 </wgt>
<wgt id='1111'> +6.8085943e+01 </wgt>
<wgt id='1112'> +6.1670900e+01 </wgt>
<wgt id='1113'> +7.6026806e+01 </wgt>
<wgt id='1114'> +8.3228919e+01 </wgt>
<wgt id='1115'> +9.1579176e+01 </wgt>
<wgt id='1116'> +8.2228957e+01 </wgt>
<wgt id='1117'> +8.0271499e+01 </wgt>
<wgt id='1118'> +8.1407556e+01 </wgt>
<wgt id='1119'> +8.0969876e+01 </wgt>
<wgt id='1120'> +8.7164804e+01 </wgt>
<wgt id='1121'> +8.3055203e+01 </wgt>
<wgt id='1122'> +8.0321320e+01 </wgt>
<wgt id='1123'> +7.8886080e+01 </wgt>
<wgt id='1124'> +8.1774041e+01 </wgt>
<wgt id='1125'> +8.4200810e+01 </wgt>
<wgt id='1126'> +7.9350243e+01 </wgt>
<wgt id='1127'> +8.2281183e+01 </wgt>
<wgt id='1128'> +8.4359350e+01 </wgt>
<wgt id='1129'> +8.3099216e+01 </wgt>
<wgt id='1130'> +8.3956145e+01 </wgt>
<wgt id='1131'> +8.4904431e+01 </wgt>
<wgt id='1132'> +8.0902777e+01 </wgt>
<wgt id='1133'> +8.3681977e+01 </wgt>
<wgt id='1134'> +7.8986124e+01 </wgt>
<wgt id='1135'> +8.1236203e+01 </wgt>
<wgt id='1136'> +8.4743619e+01 </wgt>
<wgt id='1137'> +8.4981462e+01 </wgt>
<wgt id='1138'> +7.9052826e+01 </wgt>
<wgt id='1139'> +8.0083990e+01 </wgt>
<wgt id='1140'> +8.7465421e+01 </wgt>
<wgt id='1141'> +8.4802884e+01 </wgt>
<wgt id='1142'> +8.2704134e+01 </wgt>
<wgt id='1143'> +8.5255132e+01 </wgt>
<wgt id='1144'> +8.4049100e+01 </wgt>
<wgt id='1145'> +8.7061305e+01 </wgt>
<wgt id='1146'> +8.0507708e+01 </wgt>
<wgt id='1147'> +8.3875841e+01 </wgt>
<wgt id='1148'> +8.0168837e+01 </wgt>
<wgt id='1149'> +8.4522968e+01 </wgt>
<wgt id='1150'> +8.3180894e+01 </wgt>
<wgt id='1151'> +8.2261636e+01 </wgt>
<wgt id='1152'> +8.1280252e+01 </wgt>
<wgt id='1153'> +8.3360417e+01 </wgt>
<wgt id='1154'> +8.5458599e+01 </wgt>
<wgt id='1155'> +8.4001040e+01 </wgt>
<wgt id='1156'> +8.4491136e+01 </wgt>
<wgt id='1157'> +8.5298284e+01 </wgt>
<wgt id='1158'> +8.6037673e+01 </wgt>
<wgt id='1159'> +8.6088991e+01 </wgt>
<wgt id='1160'> +8.6418833e+01 </wgt>
<wgt id='1161'> +8.3330861e+01 </wgt>
<wgt id='1162'> +8.2881712e+01 </wgt>
<wgt id='1163'> +8.5603494e+01 </wgt>
<wgt id='1164'> +8.4543698e+01 </wgt>
<wgt id='1165'> +8.2909818e+01 </wgt>
<wgt id='1166'> +8.1145302e+01 </wgt>
<wgt id='1167'> +8.3408929e+01 </wgt>
<wgt id='1168'> +8.4507106e+01 </wgt>
<wgt id='1169'> +8.7136032e+01 </wgt>
<wgt id='1170'> +8.2071557e+01 </wgt>
<wgt id='1171'> +8.4414445e+01 </wgt>
<wgt id='1172'> +8.0795771e+01 </wgt>
<wgt id='1173'> +8.3268828e+01 </wgt>
<wgt id='1174'> +8.7087934e+01 </wgt>
<wgt id='1175'> +8.2712447e+01 </wgt>
<wgt id='1176'> +8.1782498e+01 </wgt>
<wgt id='1177'> +8.5222626e+01 </wgt>
<wgt id='1178'> +8.0692444e+01 </wgt>
<wgt id='1179'> +8.4968707e+01 </wgt>
<wgt id='1180'> +8.8354829e+01 </wgt>
<wgt id='1181'> +8.6930798e+01 </wgt>
<wgt id='1182'> +8.5110755e+01 </wgt>
<wgt id='1183'> +8.3667359e+01 </wgt>
<wgt id='1184'> +8.2903213e+01 </wgt>
<wgt id='1185'> +8.1039737e+01 </wgt>
<wgt id='1186'> +8.6798393e+01 </wgt>
<wgt id='1187'> +7.6955712e+01 </wgt>
<wgt id='1188'> +7.8865992e+01 </wgt>
<wgt id='1189'> +8.1855828e+01 </wgt>
<wgt id='1190'> +8.8311220e+01 </wgt>
<wgt id='1191'> +7.8595799e+01 </wgt>
<wgt id='1192'> +8.2432850e+01 </wgt>
<wgt id='1193'> +8.2539198e+01 </wgt>
<wgt id='1194'> +8.6469335e+01 </wgt>
<wgt id='1195'> +8.2294241e+01 </wgt>
<wgt id='1196'> +8.3956145e+01 </wgt>
<wgt id='1197'> +8.5785875e+01 </wgt>
<wgt id='1198'> +8.1247155e+01 </wgt>
<wgt id='1199'> +8.1940756e+01 </wgt>
<wgt id='1200'> +8.5888038e+01 </wgt>
<wgt id='1201'> +7.7997892e+01 </wgt>
<wgt id='1202'> +8.5301096e+01 </wgt>
<wgt id='1203'> +7.9259749e+01 </wgt>
<wgt id='1204'> +8.2762632e+01 </wgt>
<wgt id='1205'> +8.2641218e+01 </wgt>
<wgt id='1206'> +8.1257622e+01 </wgt>
<wgt id='1207'> +8.1342163e+01 </wgt>
<wgt id='1208'> +8.3462026e+01 </wgt>
<wgt id='1209'> +8.1238662e+01 </wgt>
<wgt id='1210'> +8.3961518e+01 </wgt>
<wgt id='1211'> +8.6368897e+01 </wgt>
<wgt id='1212'> +8.2814018e+01 </wgt>
<wgt id='1213'> +8.1767321e+01 </wgt>
<wgt id='1214'> +8.1768349e+01 </wgt>
<wgt id='1215'> +7.8776950e+01 </wgt>
<wgt id='1216'> +8.2796153e+01 </wgt>
<wgt id='1217'> +8.2701954e+01 </wgt>
<wgt id='1218'> +8.2943363e+01 </wgt>
<wgt id='1219'> +8.2764079e+01 </wgt>
<wgt id='1220'> +8.3175073e+01 </wgt>
<wgt id='1221'> +8.2820092e+01 </wgt>
<wgt id='1222'> +8.2560192e+01 </wgt>
<wgt id='1223'> +8.2887552e+01 </wgt>
<wgt id='1224'> +8.2471986e+01 </wgt>
<wgt id='1225'> +8.3021997e+01 </wgt>
<wgt id='1226'> +8.1899080e+01 </wgt>
<wgt id='1227'> +8.2700308e+01 </wgt>
<wgt id='1228'> +8.3048931e+01 </wgt>
<wgt id='1229'> +8.2884359e+01 </wgt>
<wgt id='1230'> +8.3458219e+01 </wgt>
<wgt id='1231'> +8.1922903e+01 </wgt>
<wgt id='1232'> +8.3214220e+01 </wgt>
<wgt id='1233'> +8.2573045e+01 </wgt>
<wgt id='1234'> +8.3163441e+01 </wgt>
<wgt id='1235'> +8.2603855e+01 </wgt>
<wgt id='1236'> +8.1960354e+01 </wgt>
<wgt id='1237'> +8.3729015e+01 </wgt>
<wgt id='1238'> +8.3011837e+01 </wgt>
<wgt id='1239'> +8.2960584e+01 </wgt>
<wgt id='1240'> +8.3073886e+01 </wgt>
<wgt id='1241'> +8.2030719e+01 </wgt>
<wgt id='1242'> +8.2635562e+01 </wgt>
<wgt id='1243'> +8.3071108e+01 </wgt>
<wgt id='1244'> +8.2705493e+01 </wgt>
<wgt id='1245'> +8.3486115e+01 </wgt>
<wgt id='1246'> +8.2705317e+01 </wgt>
<wgt id='1247'> +8.2712609e+01 </wgt>
<wgt id='1248'> +8.2443544e+01 </wgt>
<wgt id='1249'> +8.3205578e+01 </wgt>
<wgt id='1250'> +8.3025126e+01 </wgt>
<wgt id='1251'> +8.2781558e+01 </wgt>
<wgt id='1252'> +8.2861322e+01 </wgt>
<wgt id='1253'> +8.2605151e+01 </wgt>
<wgt id='1254'> +8.2797394e+01 </wgt>
<wgt id='1255'> +8.2642450e+01 </wgt>
<wgt id='1256'> +8.2860307e+01 </wgt>
<wgt id='1257'> +8.2325731e+01 </wgt>
<wgt id='1258'> +8.2912739e+01 </wgt>
<wgt id='1259'> +8.2601007e+01 </wgt>
<wgt id='1260'> +8.2731431e+01 </wgt>
<wgt id='1261'> +8.2920174e+01 </wgt>
<wgt id='1262'> +8.2880346e+01 </wgt>
<wgt id='1263'> +8.2393726e+01 </wgt>
<wgt id='1264'> +8.2597668e+01 </wgt>
<wgt id='1265'> +8.3234794e+01 </wgt>
<wgt id='1266'> +8.2793992e+01 </wgt>
<wgt id='1267'> +8.2817286e+01 </wgt>
<wgt id='1268'> +8.2823904e+01 </wgt>
<wgt id='1269'> +8.2687638e+01 </wgt>
<wgt id='1270'> +8.2566103e+01 </wgt>
<wgt id='1271'> +8.2719655e+01 </wgt>
<wgt id='1272'> +8.3009166e+01 </wgt>
<wgt id='1273'> +8.2772818e+01 </wgt>
<wgt id='1274'> +8.2560025e+01 </wgt>
<wgt id='1275'> +8.2686914e+01 </wgt>
<wgt id='1276'> +8.2938551e+01 </wgt>
<wgt id='1277'> +8.2871293e+01 </wgt>
<wgt id='1278'> +8.2791323e+01 </wgt>
<wgt id='1279'> +8.2821127e+01 </wgt>
<wgt id='1280'> +8.2899472e+01 </wgt>
<wgt id='1281'> +8.2861924e+01 </wgt>
<wgt id='1282'> +8.2887567e+01 </wgt>
<wgt id='1283'> +8.2728639e+01 </wgt>
<wgt id='1284'> +8.2863844e+01 </wgt>
<wgt id='1285'> +8.2755284e+01 </wgt>
<wgt id='1286'> +8.2741321e+01 </wgt>
<wgt id='1287'> +8.2841309e+01 </wgt>
<wgt id='1288'> +8.2670653e+01 </wgt>
<wgt id='1289'> +8.2846648e+01 </wgt>
<wgt id='1290'> +8.2817781e+01 </wgt>
<wgt id='1291'> +8.2753959e+01 </wgt>
<wgt id='1292'> +8.2930160e+01 </wgt>
<wgt id='1293'> +8.2733948e+01 </wgt>
<wgt id='1294'> +8.2751103e+01 </wgt>
<wgt id='1295'> +8.2756171e+01 </wgt>
<wgt id='1296'> +8.2899635e+01 </wgt>
<wgt id='1297'> +8.2773300e+01 </wgt>
<wgt id='1298'> +8.2759910e+01 </wgt>
<wgt id='1299'> +8.2770134e+01 </wgt>
<wgt id='1300'> +8.2886979e+01 </wgt>
<wgt id='1301'> +8.2830454e+01 </wgt>
<wgt id='1302'> +8.2837648e+01 </wgt>
<wgt id='1303'> +8.2784907e+01 </wgt>
<wgt id='1304'> +8.2770121e+01 </wgt>
<wgt id='1305'> +8.2818526e+01 </wgt>
<wgt id='1306'> +8.2764211e+01 </wgt>
<wgt id='1307'> +8.2876130e+01 </wgt>
<wgt id='1308'> +8.2754902e+01 </wgt>
<wgt id='1309'> +8.2913897e+01 </wgt>
<wgt id='1310'> +8.2706258e+01 </wgt>
<wgt id='1311'> +8.2728236e+01 </wgt>
<wgt id='1312'> +8.2854021e+01 </wgt>
<wgt id='1313'> +8.2855597e+01 </wgt>
<wgt id='1314'> +8.2788527e+01 </wgt>
<wgt id='1315'> +8.2770173e+01 </wgt>
<wgt id='1316'> +8.2874278e+01 </wgt>
<wgt id='1317'> +8.1316283e+01 </wgt>
<wgt id='1318'> +8.4620125e+01 </wgt>
<wgt id='1319'> +9.0784582e+01 </wgt>
<wgt id='1320'> +7.9322367e+01 </wgt>
<wgt id='1321'> +7.9477196e+01 </wgt>
<wgt id='1322'> +8.0249230e+01 </wgt>
<wgt id='1323'> +7.9443304e+01 </wgt>
<wgt id='1324'> +7.9556239e+01 </wgt>
<wgt id='1325'> +7.9820336e+01 </wgt>
<wgt id='1326'> +7.9431732e+01 </wgt>
<wgt id='1327'> +7.9296910e+01 </wgt>
<wgt id='1328'> +8.1413152e+01 </wgt>
<wgt id='1329'> +7.8001483e+01 </wgt>
<wgt id='1330'> +8.0595427e+01 </wgt>
<wgt id='1331'> +7.9482294e+01 </wgt>
<wgt id='1332'> +7.9285637e+01 </wgt>
<wgt id='1333'> +7.7696223e+01 </wgt>
<wgt id='1334'> +7.9645900e+01 </wgt>
<wgt id='1335'> +8.1120374e+01 </wgt>
<wgt id='1336'> +7.6808102e+01 </wgt>
<wgt id='1337'> +8.1596342e+01 </wgt>
<wgt id='1338'> +7.6783206e+01 </wgt>
<wgt id='1339'> +7.9914683e+01 </wgt>
<wgt id='1340'> +7.8566549e+01 </wgt>
<wgt id='1341'> +7.9796836e+01 </wgt>
<wgt id='1342'> +7.8251456e+01 </wgt>
<wgt id='1343'> +8.0161620e+01 </wgt>
<wgt id='1344'> +7.8303598e+01 </wgt>
<wgt id='1345'> +8.0109325e+01 </wgt>
<wgt id='1346'> +7.8707908e+01 </wgt>
<wgt id='1347'> +7.9759677e+01 </wgt>
<wgt id='1348'> +7.8694813e+01 </wgt>
<wgt id='1349'> +7.8779661e+01 </wgt>
<wgt id='1350'> +7.9505999e+01 </wgt>
<wgt id='1351'> +7.8754631e+01 </wgt>
<wgt id='1352'> +8.0041811e+01 </wgt>
<wgt id='1353'> +7.9922407e+01 </wgt>
<wgt id='1354'> +7.7996894e+01 </wgt>
<wgt id='1355'> +7.8734945e+01 </wgt>
<wgt id='1356'> +8.0063929e+01 </wgt>
<wgt id='1357'> +7.9694021e+01 </wgt>
<wgt id='1358'> +7.8247561e+01 </wgt>
<wgt id='1359'> +7.8067381e+01 </wgt>
<wgt id='1360'> +7.9653363e+01 </wgt>
<wgt id='1361'> +8.0266185e+01 </wgt>
<wgt id='1362'> +7.8427252e+01 </wgt>
<wgt id='1363'> +7.9712149e+01 </wgt>
<wgt id='1364'> +7.8704583e+01 </wgt>
<wgt id='1365'> +7.8501464e+01 </wgt>
<wgt id='1366'> +7.8599236e+01 </wgt>
<wgt id='1367'> +7.8644227e+01 </wgt>
<wgt id='1368'> +7.8847501e+01 </wgt>
<wgt id='1369'> +7.8726326e+01 </wgt>
<wgt id='1370'> +7.8623110e+01 </wgt>
<wgt id='1371'> +7.7784361e+01 </wgt>
<wgt id='1372'> +7.8290654e+01 </wgt>
<wgt id='1373'> +7.8900468e+01 </wgt>
<wgt id='1374'> +7.8680790e+01 </wgt>
<wgt id='1375'> +7.7473416e+01 </wgt>
<wgt id='1376'> +8.2139886e+01 </wgt>
<wgt id='1377'> +7.7638376e+01 </wgt>
<wgt id='1378'> +8.0942900e+01 </wgt>
<wgt id='1379'> +8.2014473e+01 </wgt>
<wgt id='1380'> +8.0106353e+01 </wgt>
<wgt id='1381'> +8.4054916e+01 </wgt>
<wgt id='1382'> +6.9636554e+01 </wgt>
<wgt id='1383'> +7.6930915e+01 </wgt>
<wgt id='1384'> +8.1097950e+01 </wgt>
<wgt id='1385'> +7.4221961e+01 </wgt>
<wgt id='1386'> +7.4622464e+01 </wgt>
<wgt id='1387'> +7.3779531e+01 </wgt>
<wgt id='1388'> +7.3942512e+01 </wgt>
<wgt id='1389'> +7.4697096e+01 </wgt>
<wgt id='1390'> +7.4734119e+01 </wgt>
<wgt id='1391'> +7.3620611e+01 </wgt>
<wgt id='1392'> +7.4018555e+01 </wgt>
<wgt id='1393'> +7.4365706e+01 </wgt>
<wgt id='1394'> +7.4270139e+01 </wgt>
<wgt id='1395'> +7.4160920e+01 </wgt>
<wgt id='1396'> +7.4162037e+01 </wgt>
<wgt id='1397'> +7.4248162e+01 </wgt>
<wgt id='1398'> +7.4114027e+01 </wgt>
<wgt id='1399'> +7.4290010e+01 </wgt>
<wgt id='1400'> +7.4580839e+01 </wgt>
<wgt id='1401'> +7.3937237e+01 </wgt>
<wgt id='1402'> +7.4666182e+01 </wgt>
<wgt id='1403'> +7.4021093e+01 </wgt>
<wgt id='1404'> +7.3425264e+01 </wgt>
<wgt id='1405'> +7.4617982e+01 </wgt>
<wgt id='1406'> +7.3700668e+01 </wgt>
<wgt id='1407'> +7.5151051e+01 </wgt>
<wgt id='1408'> +7.3797820e+01 </wgt>
<wgt id='1409'> +7.5076445e+01 </wgt>
<wgt id='1410'> +7.4444115e+01 </wgt>
<wgt id='1411'> +7.3636849e+01 </wgt>
<wgt id='1412'> +7.4875998e+01 </wgt>
<wgt id='1413'> +7.3371891e+01 </wgt>
<wgt id='1414'> +7.4364637e+01 </wgt>
<wgt id='1415'> +7.4156529e+01 </wgt>
<wgt id='1416'> +7.4387982e+01 </wgt>
<wgt id='1417'> +7.4161001e+01 </wgt>
<wgt id='1418'> +7.3993272e+01 </wgt>
<wgt id='1419'> +7.4731775e+01 </wgt>
<wgt id='1420'> +7.4006652e+01 </wgt>
<wgt id='1421'> +7.4118546e+01 </wgt>
<wgt id='1422'> +7.4319534e+01 </wgt>
<wgt id='1423'> +7.4156461e+01 </wgt>
<wgt id='1424'> +7.4575651e+01 </wgt>
<wgt id='1425'> +7.3545708e+01 </wgt>
<wgt id='1426'> +7.5000973e+01 </wgt>
<wgt id='1427'> +7.4659935e+01 </wgt>
<wgt id='1428'> +7.3998446e+01 </wgt>
<wgt id='1429'> +7.3450684e+01 </wgt>
<wgt id='1430'> +7.4911608e+01 </wgt>
<wgt id='1431'> +7.5004430e+01 </wgt>
<wgt id='1432'> +7.4888333e+01 </wgt>
<wgt id='1433'> +7.5267739e+01 </wgt>
<wgt id='1434'> +7.4028681e+01 </wgt>
<wgt id='1435'> +7.4461925e+01 </wgt>
<wgt id='1436'> +7.3531287e+01 </wgt>
<wgt id='1437'> +7.3655712e+01 </wgt>
<wgt id='1438'> +7.3235003e+01 </wgt>
<wgt id='1439'> +7.3533767e+01 </wgt>
<wgt id='1440'> +7.3492789e+01 </wgt>
<wgt id='1441'> +7.3897608e+01 </wgt>
<wgt id='1442'> +7.3446156e+01 </wgt>
<wgt id='1443'> +7.3798145e+01 </wgt>
<wgt id='1444'> +7.3232205e+01 </wgt>
<wgt id='1445'> +7.3068909e+01 </wgt>
<wgt id='1446'> +7.3742658e+01 </wgt>
<wgt id='1447'> +7.3597650e+01 </wgt>
<wgt id='1448'> +7.3304751e+01 </wgt>
<wgt id='1449'> +7.3768668e+01 </wgt>
<wgt id='1450'> +7.3584338e+01 </wgt>
<wgt id='1451'> +7.3531545e+01 </wgt>
<wgt id='1452'> +7.3357596e+01 </wgt>
<wgt id='1453'> +7.3430927e+01 </wgt>
<wgt id='1454'> +7.3643526e+01 </wgt>
<wgt id='1455'> +7.3353923e+01 </wgt>
<wgt id='1456'> +7.3430909e+01 </wgt>
<wgt id='1457'> +7.3703017e+01 </wgt>
<wgt id='1458'> +7.3525804e+01 </wgt>
<wgt id='1459'> +7.3804842e+01 </wgt>
<wgt id='1460'> +7.3574284e+01 </wgt>
<wgt id='1461'> +7.3972890e+01 </wgt>
<wgt id='1462'> +7.3650034e+01 </wgt>
<wgt id='1463'> +7.3417293e+01 </wgt>
<wgt id='1464'> +7.3396137e+01 </wgt>
<wgt id='1465'> +8.3135952e+01 </wgt>
<wgt id='1466'> +7.7341765e+01 </wgt>
<wgt id='1467'> +7.7223504e+01 </wgt>
<wgt id='1468'> +7.6878184e+01 </wgt>
<wgt id='1469'> +7.8707302e+01 </wgt>
<wgt id='1470'> +7.7075687e+01 </wgt>
<wgt id='1471'> +7.7316553e+01 </wgt>
<wgt id='1472'> +7.6404189e+01 </wgt>
<wgt id='1473'> +7.7954082e+01 </wgt>
<wgt id='1474'> +7.8019788e+01 </wgt>
<wgt id='1475'> +7.6978753e+01 </wgt>
<wgt id='1476'> +7.6882730e+01 </wgt>
<wgt id='1477'> +7.6546491e+01 </wgt>
<wgt id='1478'> +7.7060588e+01 </wgt>
<wgt id='1479'> +7.7812971e+01 </wgt>
<wgt id='1480'> +7.7234205e+01 </wgt>
<wgt id='1481'> +7.7142638e+01 </wgt>
<wgt id='1482'> +7.6976109e+01 </wgt>
<wgt id='1483'> +7.7576425e+01 </wgt>
<wgt id='1484'> +7.8150640e+01 </wgt>
<wgt id='1485'> +7.6853838e+01 </wgt>
<wgt id='1486'> +7.7576175e+01 </wgt>
<wgt id='1487'> +7.6878256e+01 </wgt>
<wgt id='1488'> +7.6799500e+01 </wgt>
<wgt id='1489'> +7.7711653e+01 </wgt>
<wgt id='1490'> +7.7385534e+01 </wgt>
<wgt id='1491'> +7.7207653e+01 </wgt>
<wgt id='1492'> +7.7205496e+01 </wgt>
<wgt id='1493'> +7.7322539e+01 </wgt>
<wgt id='1494'> +7.7118676e+01 </wgt>
<wgt id='1495'> +7.7365202e+01 </wgt>
<wgt id='1496'> +7.7344742e+01 </wgt>
<wgt id='1497'> +7.7415011e+01 </wgt>
<wgt id='1498'> +7.6811508e+01 </wgt>
<wgt id='1499'> +7.6921262e+01 </wgt>
<wgt id='1500'> +7.7845312e+01 </wgt>
<wgt id='1501'> +7.7616267e+01 </wgt>
<wgt id='1502'> +7.7088077e+01 </wgt>
<wgt id='1503'> +7.7338719e+01 </wgt>
<wgt id='1504'> +7.7318624e+01 </wgt>
<wgt id='1505'> +7.7586625e+01 </wgt>
<wgt id='1506'> +7.7191851e+01 </wgt>
<wgt id='1507'> +7.7393444e+01 </wgt>
<wgt id='1508'> +7.7271379e+01 </wgt>
<wgt id='1509'> +7.7258606e+01 </wgt>
<wgt id='1510'> +7.7334612e+01 </wgt>
<wgt id='1511'> +7.7570911e+01 </wgt>
<wgt id='1512'> +7.7642343e+01 </wgt>
<wgt id='1513'> +7.7309843e+01 </wgt>
<wgt id='1514'> +7.7383852e+01 </wgt>
<wgt id='1515'> +7.7397307e+01 </wgt>
<wgt id='1516'> +7.7456853e+01 </wgt>
<wgt id='1517'> +7.7236063e+01 </wgt>
<wgt id='1518'> +7.7466439e+01 </wgt>
<wgt id='1519'> +7.7265466e+01 </wgt>
<wgt id='1520'> +7.7307527e+01 </wgt>
<wgt id='1521'> +7.7495828e+01 </wgt>
<wgt id='1522'> +7.7320777e+01 </wgt>
<wgt id='1523'> +7.7263690e+01 </wgt>
<wgt id='1524'> +7.7434223e+01 </wgt>
<wgt id='1525'> +7.7459715e+01 </wgt>
<wgt id='1526'> +7.7368155e+01 </wgt>
<wgt id='1527'> +7.7436900e+01 </wgt>
<wgt id='1528'> +7.7352054e+01 </wgt>
<wgt id='1529'> +7.7304848e+01 </wgt>
<wgt id='1530'> +7.7396586e+01 </wgt>
<wgt id='1531'> +7.7363235e+01 </wgt>
<wgt id='1532'> +7.7301617e+01 </wgt>
<wgt id='1533'> +7.7291338e+01 </wgt>
<wgt id='1534'> +7.7380620e+01 </wgt>
<wgt id='1535'> +7.7332161e+01 </wgt>
<wgt id='1536'> +7.7388000e+01 </wgt>
<wgt id='1537'> +7.7338317e+01 </wgt>
<wgt id='1538'> +7.7289412e+01 </wgt>
<wgt id='1539'> +7.7300376e+01 </wgt>
<wgt id='1540'> +7.7375468e+01 </wgt>
<wgt id='1541'> +7.7372658e+01 </wgt>
<wgt id='1542'> +7.7281734e+01 </wgt>
<wgt id='1543'> +7.7350038e+01 </wgt>
<wgt id='1544'> +7.7326024e+01 </wgt>
<wgt id='1545'> +7.7353201e+01 </wgt>
<wgt id='1546'> +7.7340813e+01 </wgt>
<wgt id='1547'> +7.7343598e+01 </wgt>
<wgt id='1548'> +7.7336283e+01 </wgt>
<wgt id='1549'> +7.7365781e+01 </wgt>
<wgt id='1550'> +7.7361920e+01 </wgt>
<wgt id='1551'> +7.7322181e+01 </wgt>
<wgt id='1552'> +7.7364892e+01 </wgt>
<wgt id='1553'> +7.7329438e+01 </wgt>
<wgt id='1554'> +7.7304012e+01 </wgt>
<wgt id='1555'> +7.7317343e+01 </wgt>
<wgt id='1556'> +7.7318325e+01 </wgt>
<wgt id='1557'> +7.7306242e+01 </wgt>
<wgt id='1558'> +7.7366234e+01 </wgt>
<wgt id='1559'> +7.7327628e+01 </wgt>
<wgt id='1560'> +7.7346562e+01 </wgt>
<wgt id='1561'> +7.7300189e+01 </wgt>
<wgt id='1562'> +7.7349718e+01 </wgt>
<wgt id='1563'> +7.7341882e+01 </wgt>
<wgt id='1564'> +7.7318842e+01 </wgt>
<wgt id='1565'> +7.7343249e+01 </wgt>
<wgt id='1566'> +7.7333982e+01 </wgt>
<wgt id='1567'> +7.5918312e+01 </wgt>
<wgt id='1568'> +7.8653495e+01 </wgt>
<wgt id='1569'> +8.0684809e+01 </wgt>
<wgt id='1570'> +8.1141513e+01 </wgt>
<wgt id='1571'> +8.0229795e+01 </wgt>
<wgt id='1572'> +8.1253709e+01 </wgt>
<wgt id='1573'> +8.1553083e+01 </wgt>
<wgt id='1574'> +8.1677208e+01 </wgt>
<wgt id='1575'> +8.1141889e+01 </wgt>
<wgt id='1576'> +8.0594038e+01 </wgt>
<wgt id='1577'> +8.0644724e+01 </wgt>
<wgt id='1578'> +8.0809543e+01 </wgt>
<wgt id='1579'> +8.0879480e+01 </wgt>
<wgt id='1580'> +8.1320145e+01 </wgt>
<wgt id='1581'> +8.0493550e+01 </wgt>
<wgt id='1582'> +8.1107357e+01 </wgt>
<wgt id='1583'> +8.0055277e+01 </wgt>
<wgt id='1584'> +8.0866690e+01 </wgt>
<wgt id='1585'> +8.0360131e+01 </wgt>
<wgt id='1586'> +8.0599246e+01 </wgt>
<wgt id='1587'> +8.1342311e+01 </wgt>
<wgt id='1588'> +7.9410532e+01 </wgt>
<wgt id='1589'> +8.0778960e+01 </wgt>
<wgt id='1590'> +8.0831012e+01 </wgt>
<wgt id='1591'> +8.0334268e+01 </wgt>
<wgt id='1592'> +8.0794037e+01 </wgt>
<wgt id='1593'> +8.1059401e+01 </wgt>
<wgt id='1594'> +8.0868940e+01 </wgt>
<wgt id='1595'> +8.0640232e+01 </wgt>
<wgt id='1596'> +8.0602121e+01 </wgt>
<wgt id='1597'> +8.0820424e+01 </wgt>
<wgt id='1598'> +8.1097037e+01 </wgt>
<wgt id='1599'> +8.0795639e+01 </wgt>
<wgt id='1600'> +8.1058404e+01 </wgt>
<wgt id='1601'> +8.0846652e+01 </wgt>
<wgt id='1602'> +8.1227434e+01 </wgt>
<wgt id='1603'> +8.0852491e+01 </wgt>
<wgt id='1604'> +8.0865482e+01 </wgt>
<wgt id='1605'> +8.1267404e+01 </wgt>
<wgt id='1606'> +8.0667244e+01 </wgt>
<wgt id='1607'> +8.0311624e+01 </wgt>
<wgt id='1608'> +8.1003559e+01 </wgt>
<wgt id='1609'> +8.0297481e+01 </wgt>
<wgt id='1610'> +8.0534630e+01 </wgt>
<wgt id='1611'> +8.0644690e+01 </wgt>
<wgt id='1612'> +8.0742715e+01 </wgt>
<wgt id='1613'> +8.0642469e+01 </wgt>
<wgt id='1614'> +8.0621784e+01 </wgt>
<wgt id='1615'> +8.0276521e+01 </wgt>
<wgt id='1616'> +8.0497208e+01 </wgt>
<wgt id='1617'> +8.0576789e+01 </wgt>
<wgt id='1618'> +8.0616427e+01 </wgt>
<wgt id='1619'> +8.0546467e+01 </wgt>
<wgt id='1620'> +8.0623163e+01 </wgt>
<wgt id='1621'> +8.0768267e+01 </wgt>
<wgt id='1622'> +8.0610623e+01 </wgt>
<wgt id='1623'> +8.0646819e+01 </wgt>
<wgt id='1624'> +8.0627461e+01 </wgt>
<wgt id='1625'> +8.0754915e+01 </wgt>
<wgt id='1626'> +8.0701243e+01 </wgt>
<wgt id='1627'> +8.0687123e+01 </wgt>
<wgt id='1628'> +8.0707664e+01 </wgt>
<wgt id='1629'> +8.0690433e+01 </wgt>
<wgt id='1630'> +8.0698695e+01 </wgt>
<wgt id='1631'> +8.0767451e+01 </wgt>
<wgt id='1632'> +8.0709697e+01 </wgt>
<wgt id='1633'> +8.0688360e+01 </wgt>
<wgt id='1634'> +8.0619964e+01 </wgt>
<wgt id='1635'> +8.0674681e+01 </wgt>
<wgt id='1636'> +8.0700128e+01 </wgt>
<wgt id='1637'> +8.0609776e+01 </wgt>
<wgt id='1638'> +8.0724381e+01 </wgt>
<wgt id='1639'> +8.0738345e+01 </wgt>
<wgt id='1640'> +8.0726040e+01 </wgt>
<wgt id='1641'> +8.0724895e+01 </wgt>
<wgt id='1642'> +8.0690383e+01 </wgt>
<wgt id='1643'> +8.0693415e+01 </wgt>
<wgt id='1644'> +8.0668866e+01 </wgt>
<wgt id='1645'> +8.0705057e+01 </wgt>
<wgt id='1646'> +8.0678660e+01 </wgt>
<wgt id='1647'> +8.0706362e+01 </wgt>
<wgt id='1648'> +8.0730122e+01 </wgt>
<wgt id='1649'> +8.0715291e+01 </wgt>
<wgt id='1650'> +8.0685866e+01 </wgt>
<wgt id='1651'> +8.0706800e+01 </wgt>
<wgt id='1652'> +8.0656272e+01 </wgt>
<wgt id='1653'> +8.0639224e+01 </wgt>
<wgt id='1654'> +8.0666782e+01 </wgt>
<wgt id='1655'> +8.0664414e+01 </wgt>
<wgt id='1656'> +8.0648137e+01 </wgt>
<wgt id='1657'> +8.0697551e+01 </wgt>
<wgt id='1658'> +8.0698616e+01 </wgt>
<wgt id='1659'> +8.0718133e+01 </wgt>
<wgt id='1660'> +8.0653014e+01 </wgt>
<wgt id='1661'> +8.0653771e+01 </wgt>
<wgt id='1662'> +8.0681715e+01 </wgt>
<wgt id='1663'> +8.0662270e+01 </wgt>
<wgt id='1664'> +8.0648925e+01 </wgt>
<wgt id='1665'> +8.0678976e+01 </wgt>
<wgt id='1666'> +8.0688065e+01 </wgt>
<wgt id='1667'> +8.0701935e+01 </wgt>
<wgt id='1668'> +8.0671840e+01 </wgt>
<wgt id='1669'> +8.0655314e+01 </wgt>
<wgt id='1670'> +7.9134306e+01 </wgt>
<wgt id='1671'> +8.2224268e+01 </wgt>
<wgt id='1672'> +7.7327426e+01 </wgt>
<wgt id='1673'> +7.7255500e+01 </wgt>
<wgt id='1674'> +7.6332551e+01 </wgt>
<wgt id='1675'> +7.7327641e+01 </wgt>
<wgt id='1676'> +7.9526399e+01 </wgt>
<wgt id='1677'> +7.7765033e+01 </wgt>
<wgt id='1678'> +7.7214870e+01 </wgt>
<wgt id='1679'> +7.7357422e+01 </wgt>
<wgt id='1680'> +7.7419101e+01 </wgt>
<wgt id='1681'> +7.7763182e+01 </wgt>
<wgt id='1682'> +7.7256985e+01 </wgt>
<wgt id='1683'> +7.6685800e+01 </wgt>
<wgt id='1684'> +7.7463673e+01 </wgt>
<wgt id='1685'> +7.7271911e+01 </wgt>
<wgt id='1686'> +7.6873382e+01 </wgt>
<wgt id='1687'> +7.7463518e+01 </wgt>
<wgt id='1688'> +7.7515087e+01 </wgt>
<wgt id='1689'> +7.7010957e+01 </wgt>
<wgt id='1690'> +7.7375826e+01 </wgt>
<wgt id='1691'> +7.7295926e+01 </wgt>
<wgt id='1692'> +7.7936006e+01 </wgt>
<wgt id='1693'> +7.7223483e+01 </wgt>
<wgt id='1694'> +7.7238199e+01 </wgt>
<wgt id='1695'> +7.7430416e+01 </wgt>
<wgt id='1696'> +7.7215456e+01 </wgt>
<wgt id='1697'> +7.7270236e+01 </wgt>
<wgt id='1698'> +7.7403234e+01 </wgt>
<wgt id='1699'> +7.7354071e+01 </wgt>
<wgt id='1700'> +7.7428677e+01 </wgt>
<wgt id='1701'> +7.7164458e+01 </wgt>
<wgt id='1702'> +7.7419831e+01 </wgt>
<wgt id='1703'> +7.5918312e+01 </wgt>
<wgt id='1704'> +7.8653495e+01 </wgt>
<wgt id='1705'> +8.0666585e+01 </wgt>
<wgt id='1706'> +8.0757759e+01 </wgt>
<wgt id='1707'> +8.1404481e+01 </wgt>
<wgt id='1708'> +8.0701582e+01 </wgt>
<wgt id='1709'> +7.8717881e+01 </wgt>
<wgt id='1710'> +8.0403726e+01 </wgt>
<wgt id='1711'> +8.0761571e+01 </wgt>
<wgt id='1712'> +8.0626706e+01 </wgt>
<wgt id='1713'> +8.0754508e+01 </wgt>
<wgt id='1714'> +8.0172874e+01 </wgt>
<wgt id='1715'> +8.0526679e+01 </wgt>
<wgt id='1716'> +8.0901809e+01 </wgt>
<wgt id='1717'> +8.0639274e+01 </wgt>
<wgt id='1718'> +8.0664786e+01 </wgt>
<wgt id='1719'> +8.0521255e+01 </wgt>
<wgt id='1720'> +8.0928281e+01 </wgt>
<wgt id='1721'> +8.0641320e+01 </wgt>
<wgt id='1722'> +8.0526284e+01 </wgt>
<wgt id='1723'> +8.0723542e+01 </wgt>
<wgt id='1724'> +8.0862876e+01 </wgt>
<wgt id='1725'> +7.9671791e+01 </wgt>
<wgt id='1726'> +8.0688512e+01 </wgt>
<wgt id='1727'> +8.1075483e+01 </wgt>
<wgt id='1728'> +8.0708665e+01 </wgt>
<wgt id='1729'> +8.0522952e+01 </wgt>
<wgt id='1730'> +8.0706839e+01 </wgt>
<wgt id='1731'> +8.0513017e+01 </wgt>
<wgt id='1732'> +8.0873495e+01 </wgt>
<wgt id='1733'> +8.0673040e+01 </wgt>
<wgt id='1734'> +8.0420767e+01 </wgt>
<wgt id='1735'> +8.1854763e+01 </wgt>
<wgt id='1736'> +7.9134306e+01 </wgt>
<wgt id='1737'> +8.2224268e+01 </wgt>
<wgt id='1738'> +8.8662321e+01 </wgt>
<wgt id='1739'> +8.8882417e+01 </wgt>
<wgt id='1740'> +8.8443745e+01 </wgt>
<wgt id='1741'> +8.8536631e+01 </wgt>
<wgt id='1742'> +8.8787985e+01 </wgt>
<wgt id='1743'> +8.8876412e+01 </wgt>
<wgt id='1744'> +8.8448495e+01 </wgt>
<wgt id='1745'> +8.8353140e+01 </wgt>
<wgt id='1746'> +8.8959382e+01 </wgt>
<wgt id='1747'> +8.8980014e+01 </wgt>
<wgt id='1748'> +8.8343439e+01 </wgt>
<wgt id='1749'> +8.8977415e+01 </wgt>
<wgt id='1750'> +8.8354523e+01 </wgt>
<wgt id='1751'> +8.8624941e+01 </wgt>
<wgt id='1752'> +8.8697027e+01 </wgt>
<wgt id='1753'> +8.8470489e+01 </wgt>
<wgt id='1754'> +8.8757965e+01 </wgt>
<wgt id='1755'> +8.8569197e+01 </wgt>
<wgt id='1756'> +8.8725253e+01 </wgt>
<wgt id='1757'> +8.8353633e+01 </wgt>
<wgt id='1758'> +8.8962020e+01 </wgt>
<wgt id='1759'> +8.9086585e+01 </wgt>
<wgt id='1760'> +8.8160190e+01 </wgt>
<wgt id='1761'> +8.8155798e+01 </wgt>
<wgt id='1762'> +8.8854421e+01 </wgt>
<wgt id='1763'> +8.8677755e+01 </wgt>
<wgt id='1764'> +8.8750431e+01 </wgt>
<wgt id='1765'> +8.7980407e+01 </wgt>
<wgt id='1766'> +8.9263277e+01 </wgt>
<wgt id='1767'> +8.8662321e+01 </wgt>
<wgt id='1768'> +9.0287461e+01 </wgt>
<wgt id='1769'> +8.6687452e+01 </wgt>
<wgt id='1770'> +9.0531376e+01 </wgt>
<wgt id='1771'> +8.7301584e+01 </wgt>
<wgt id='1772'> +8.8850791e+01 </wgt>
<wgt id='1773'> +8.8282755e+01 </wgt>
<wgt id='1774'> +8.8461840e+01 </wgt>
<wgt id='1775'> +8.8866001e+01 </wgt>
<wgt id='1776'> +8.7653905e+01 </wgt>
<wgt id='1777'> +8.9662977e+01 </wgt>
<wgt id='1778'> +8.8759272e+01 </wgt>
<wgt id='1779'> +8.9612078e+01 </wgt>
<wgt id='1780'> +8.9687858e+01 </wgt>
<wgt id='1781'> +8.9113129e+01 </wgt>
<wgt id='1782'> +8.9353392e+01 </wgt>
<wgt id='1783'> +8.8906775e+01 </wgt>
<wgt id='1784'> +8.8917790e+01 </wgt>
<wgt id='1785'> +8.9341756e+01 </wgt>
<wgt id='1786'> +8.9257281e+01 </wgt>
<wgt id='1787'> +8.9001784e+01 </wgt>
<wgt id='1788'> +8.8693517e+01 </wgt>
<wgt id='1789'> +8.9548195e+01 </wgt>
<wgt id='1790'> +8.9426955e+01 </wgt>
<wgt id='1791'> +8.8828736e+01 </wgt>
<wgt id='1792'> +8.9110558e+01 </wgt>
<wgt id='1793'> +8.9148260e+01 </wgt>
<wgt id='1794'> +8.8990970e+01 </wgt>
<wgt id='1795'> +8.9265611e+01 </wgt>
<wgt id='1796'> +8.9004263e+01 </wgt>
<wgt id='1797'> +8.9190017e+01 </wgt>
<wgt id='1798'> +8.9058908e+01 </wgt>
<wgt id='1799'> +8.9185423e+01 </wgt>
<wgt id='1800'> +8.9134968e+01 </wgt>
<wgt id='1801'> +8.9121335e+01 </wgt>
<wgt id='1802'> +8.8360087e+01 </wgt>
<wgt id='1803'> +8.9810498e+01 </wgt>
<wgt id='1804'> +8.8786097e+01 </wgt>
<wgt id='1805'> +8.9488353e+01 </wgt>
<wgt id='1806'> +8.8782108e+01 </wgt>
<wgt id='1807'> +8.9312627e+01 </wgt>
<wgt id='1808'> +8.8812722e+01 </wgt>
<wgt id='1809'> +8.9409492e+01 </wgt>
<wgt id='1810'> +8.9113632e+01 </wgt>
<wgt id='1811'> +9.0977938e+01 </wgt>
<wgt id='1812'> +8.6677632e+01 </wgt>
<wgt id='1813'> +9.1290296e+01 </wgt>
<wgt id='1814'> +8.7575291e+01 </wgt>
<wgt id='1815'> +8.8583157e+01 </wgt>
<wgt id='1816'> +8.8703448e+01 </wgt>
<wgt id='1817'> +8.8949050e+01 </wgt>
<wgt id='1818'> +8.9475084e+01 </wgt>
<wgt id='1819'> +8.7533887e+01 </wgt>
<wgt id='1820'> +8.9498691e+01 </wgt>
<wgt id='1821'> +8.8169800e+01 </wgt>
<wgt id='1822'> +9.0886794e+01 </wgt>
<wgt id='1823'> +8.9036957e+01 </wgt>
<wgt id='1824'> +7.8509070e+01 </wgt>
<wgt id='1825'> +7.8477232e+01 </wgt>
<wgt id='1826'> +7.8445522e+01 </wgt>
<wgt id='1827'> +7.8413696e+01 </wgt>
<wgt id='1828'> +7.8381741e+01 </wgt>
<wgt id='1829'> +7.8350030e+01 </wgt>
<wgt id='1830'> +7.8318551e+01 </wgt>
<wgt id='1831'> +7.8286868e+01 </wgt>
<wgt id='1832'> +7.8255221e+01 </wgt>
<wgt id='1833'> +7.8223517e+01 </wgt>
<wgt id='1834'> +7.8191756e+01 </wgt>
<wgt id='1835'> +7.8159858e+01 </wgt>
<wgt id='1836'> +7.8128156e+01 </wgt>
<wgt id='1837'> +7.8096338e+01 </wgt>
<wgt id='1838'> +7.8064780e+01 </wgt>
<wgt id='1839'> +7.8033153e+01 </wgt>
<wgt id='1840'> +7.8001399e+01 </wgt>
<wgt id='1841'> +7.7970014e+01 </wgt>
<wgt id='1842'> +7.7938396e+01 </wgt>
<wgt id='1843'> +7.7906546e+01 </wgt>
<wgt id='1844'> +7.7874921e+01 </wgt>
<wgt id='1845'> +7.7843457e+01 </wgt>
<wgt id='1846'> +7.7811492e+01 </wgt>
<wgt id='1847'> +7.7779571e+01 </wgt>
<wgt id='1848'> +7.7748285e+01 </wgt>
<wgt id='1849'> +7.7716919e+01 </wgt>
<wgt id='1850'> +7.7685241e+01 </wgt>
<wgt id='1851'> +7.7653658e+01 </wgt>
<wgt id='1852'> +7.7622191e+01 </wgt>
<wgt id='1853'> +7.7590321e+01 </wgt>
<wgt id='1854'> +7.7558658e+01 </wgt>
<wgt id='1855'> +8.0308487e+01 </wgt>
<wgt id='1856'> +8.0741800e+01 </wgt>
<wgt id='1857'> +7.9848528e+01 </wgt>
<wgt id='1858'> +8.0876367e+01 </wgt>
<wgt id='1859'> +8.1167204e+01 </wgt>
<wgt id='1860'> +8.1293476e+01 </wgt>
<wgt id='1861'> +8.0779928e+01 </wgt>
<wgt id='1862'> +8.0235511e+01 </wgt>
<wgt id='1863'> +8.0270644e+01 </wgt>
<wgt id='1864'> +8.0433259e+01 </wgt>
<wgt id='1865'> +8.0501854e+01 </wgt>
<wgt id='1866'> +8.0958855e+01 </wgt>
<wgt id='1867'> +8.0127425e+01 </wgt>
<wgt id='1868'> +8.0739208e+01 </wgt>
<wgt id='1869'> +7.9681168e+01 </wgt>
<wgt id='1870'> +8.0463399e+01 </wgt>
<wgt id='1871'> +8.0005251e+01 </wgt>
<wgt id='1872'> +8.0213345e+01 </wgt>
<wgt id='1873'> +8.0959719e+01 </wgt>
<wgt id='1874'> +7.9052020e+01 </wgt>
<wgt id='1875'> +8.0417122e+01 </wgt>
<wgt id='1876'> +8.0446452e+01 </wgt>
<wgt id='1877'> +7.9955013e+01 </wgt>
<wgt id='1878'> +8.0424701e+01 </wgt>
<wgt id='1879'> +8.0675065e+01 </wgt>
<wgt id='1880'> +8.0477411e+01 </wgt>
<wgt id='1881'> +8.0248077e+01 </wgt>
<wgt id='1882'> +8.0244169e+01 </wgt>
<wgt id='1883'> +8.0448913e+01 </wgt>
<wgt id='1884'> +8.0708129e+01 </wgt>
<wgt id='1885'> +8.0411239e+01 </wgt>
<wgt id='1886'> +8.0697239e+01 </wgt>
<wgt id='1887'> +8.0462117e+01 </wgt>
<wgt id='1888'> +8.0843753e+01 </wgt>
<wgt id='1889'> +8.0475310e+01 </wgt>
<wgt id='1890'> +8.0483900e+01 </wgt>
<wgt id='1891'> +8.0891810e+01 </wgt>
<wgt id='1892'> +8.0291738e+01 </wgt>
<wgt id='1893'> +7.9933994e+01 </wgt>
<wgt id='1894'> +8.0618513e+01 </wgt>
<wgt id='1895'> +7.9922224e+01 </wgt>
<wgt id='1896'> +8.0157175e+01 </wgt>
<wgt id='1897'> +8.0265674e+01 </wgt>
<wgt id='1898'> +8.0376020e+01 </wgt>
<wgt id='1899'> +8.0265576e+01 </wgt>
<wgt id='1900'> +8.0245241e+01 </wgt>
<wgt id='1901'> +7.9904794e+01 </wgt>
<wgt id='1902'> +8.0117886e+01 </wgt>
<wgt id='1903'> +8.0204308e+01 </wgt>
<wgt id='1904'> +8.0234438e+01 </wgt>
<wgt id='1905'> +8.0171484e+01 </wgt>
<wgt id='1906'> +8.0245196e+01 </wgt>
<wgt id='1907'> +8.0392514e+01 </wgt>
<wgt id='1908'> +8.0232864e+01 </wgt>
<wgt id='1909'> +8.0272395e+01 </wgt>
<wgt id='1910'> +8.0255458e+01 </wgt>
<wgt id='1911'> +8.0371546e+01 </wgt>
<wgt id='1912'> +8.0325545e+01 </wgt>
<wgt id='1913'> +8.0315585e+01 </wgt>
<wgt id='1914'> +8.0336406e+01 </wgt>
<wgt id='1915'> +8.0317690e+01 </wgt>
<wgt id='1916'> +8.0323231e+01 </wgt>
<wgt id='1917'> +8.0389294e+01 </wgt>
<wgt id='1918'> +8.0330935e+01 </wgt>
<wgt id='1919'> +8.0312191e+01 </wgt>
<wgt id='1920'> +8.0240840e+01 </wgt>
<wgt id='1921'> +8.0296344e+01 </wgt>
<wgt id='1922'> +8.0321433e+01 </wgt>
<wgt id='1923'> +8.0231799e+01 </wgt>
<wgt id='1924'> +8.0346369e+01 </wgt>
<wgt id='1925'> +8.0362440e+01 </wgt>
<wgt id='1926'> +8.0350339e+01 </wgt>
<wgt id='1927'> +8.0347810e+01 </wgt>
<wgt id='1928'> +8.0312656e+01 </wgt>
<wgt id='1929'> +8.0315843e+01 </wgt>
<wgt id='1930'> +8.0291819e+01 </wgt>
<wgt id='1931'> +8.0331529e+01 </wgt>
<wgt id='1932'> +8.0302764e+01 </wgt>
<wgt id='1933'> +8.0332850e+01 </wgt>
<wgt id='1934'> +8.0355047e+01 </wgt>
<wgt id='1935'> +8.0336240e+01 </wgt>
<wgt id='1936'> +8.0313938e+01 </wgt>
<wgt id='1937'> +8.0332128e+01 </wgt>
<wgt id='1938'> +8.0280913e+01 </wgt>
<wgt id='1939'> +8.0261698e+01 </wgt>
<wgt id='1940'> +8.0291280e+01 </wgt>
<wgt id='1941'> +8.0292779e+01 </wgt>
<wgt id='1942'> +8.0269674e+01 </wgt>
<wgt id='1943'> +8.0320153e+01 </wgt>
<wgt id='1944'> +8.0320944e+01 </wgt>
<wgt id='1945'> +8.0342265e+01 </wgt>
<wgt id='1946'> +8.0272579e+01 </wgt>
<wgt id='1947'> +8.0273768e+01 </wgt>
<wgt id='1948'> +8.0304921e+01 </wgt>
<wgt id='1949'> +8.0282855e+01 </wgt>
<wgt id='1950'> +8.0270405e+01 </wgt>
<wgt id='1951'> +8.0303109e+01 </wgt>
<wgt id='1952'> +8.0312212e+01 </wgt>
<wgt id='1953'> +8.0326581e+01 </wgt>
<wgt id='1954'> +8.0296576e+01 </wgt>
<wgt id='1955'> +8.0278046e+01 </wgt>
<wgt id='1956'> +8.0308226e+01 </wgt>
<wgt id='1957'> +8.0309745e+01 </wgt>
<wgt id='1958'> +8.0308712e+01 </wgt>
<wgt id='1959'> +8.0308774e+01 </wgt>
<wgt id='1960'> +8.0309183e+01 </wgt>
<wgt id='1961'> +8.0308588e+01 </wgt>
<wgt id='1962'> +8.0309912e+01 </wgt>
</rwgt>
</event>
<event npLO=" -1 " npNLO=" 1 ">
 7      1 +1.5146096e+02 3.71948300e+01 7.54677110e-03 1.30672390e-01
        5 -1    0    0  502    0 +0.0000000000e+00 +0.0000000000e+00 +2.0495025000e+01 2.0495025000e+01 0.0000000000e+00 0.0000e+00 9.0000e+00
       21 -1    0    0  501  502 +0.0000000000e+00 +0.0000000000e+00 -4.1592679000e+02 4.1592679000e+02 0.0000000000e+00 0.0000e+00 9.0000e+00
       23  2    1    2    0    0 +3.5550550000e+01 +3.2254510000e+01 -1.2253098000e+02 1.5933151000e+02 8.9824808000e+01 0.0000e+00 0.0000e+00
       15  1    3    3    0    0 +7.1613105000e+00 +3.3238577000e+01 -5.8515475000e+01 6.7700118000e+01 1.7770000000e+00 0.0000e+00 9.0000e+00
      -15  1    3    3    0    0 +3.3203437000e+01 -2.0984315000e+01 -2.2506902000e+01 4.5304836000e+01 1.7770000000e+00 0.0000e+00 9.0000e+00
       22  1    3    3    0    0 -4.8141977000e+00 +2.0000248000e+01 -4.1508599000e+01 4.6326561000e+01 0.0000000000e+00 0.0000e+00 9.0000e+00
        5  1    1    2  501    0 -3.5550550000e+01 -3.2254510000e+01 -2.7290079000e+02 2.7709031000e+02 0.0000000000e+00 0.0000e+00 9.0000e+00
#aMCatNLO 1  0  0  0  0 0.00000000E+00 0.00000000E+00 -9  7  0 0.00000000E+00 0.00000000E+00 0.00000000E+00 0.00000000E+00 0.00000000E+00
<rwgt>
<wgt id='1001'> +1.5146000e+02 </wgt>
<wgt id='1002'> +1.5146000e+02 </wgt>
<wgt id='1003'> +1.4492000e+02 </wgt>
<wgt id='1004'> +1.5275000e+02 </wgt>
<wgt id='1005'> +1.5350000e+02 </wgt>
<wgt id='1006'> +1.4802000e+02 </wgt>
<wgt id='1007'> +1.4289000e+02 </wgt>
<wgt id='1008'> +1.5388000e+02 </wgt>
<wgt id='1009'> +1.5243000e+02 </wgt>
<wgt id='1010'> +1.5126000e+02 </wgt>
<wgt id='1011'> +1.5341000e+02 </wgt>
<wgt id='1012'> +1.4839000e+02 </wgt>
<wgt id='1013'> +1.4716000e+02 </wgt>
<wgt id='1014'> +1.5399000e+02 </wgt>
<wgt id='1015'> +1.5258000e+02 </wgt>
<wgt id='1016'> +1.5007000e+02 </wgt>
<wgt id='1017'> +1.5514000e+02 </wgt>
<wgt id='1018'> +1.5386000e+02 </wgt>
<wgt id='1019'> +1.5115000e+02 </wgt>
<wgt id='1020'> +1.5148000e+02 </wgt>
<wgt id='1021'> +1.5272000e+02 </wgt>
<wgt id='1022'> +1.5661000e+02 </wgt>
<wgt id='1023'> +1.5279000e+02 </wgt>
<wgt id='1024'> +1.5034000e+02 </wgt>
<wgt id='1025'> +1.6194000e+02 </wgt>
<wgt id='1026'> +1.5106000e+02 </wgt>
<wgt id='1027'> +1.5138000e+02 </wgt>
<wgt id='1028'> +1.4991000e+02 </wgt>
<wgt id='1029'> +1.5108000e+02 </wgt>
<wgt id='1030'> +1.4956000e+02 </wgt>
<wgt id='1031'> +1.5350000e+02 </wgt>
<wgt id='1032'> +1.5622000e+02 </wgt>
<wgt id='1033'> +1.5028000e+02 </wgt>
<wgt id='1034'> +1.4720000e+02 </wgt>
<wgt id='1035'> +1.4997000e+02 </wgt>
<wgt id='1036'> +1.5190000e+02 </wgt>
<wgt id='1037'> +1.5566000e+02 </wgt>
<wgt id='1038'> +1.5120000e+02 </wgt>
<wgt id='1039'> +1.5433000e+02 </wgt>
<wgt id='1040'> +1.5047000e+02 </wgt>
<wgt id='1041'> +1.4854000e+02 </wgt>
<wgt id='1042'> +1.5091000e+02 </wgt>
<wgt id='1043'> +1.5097000e+02 </wgt>
<wgt id='1044'> +1.5179000e+02 </wgt>
<wgt id='1045'> +1.5107000e+02 </wgt>
<wgt id='1046'> +1.5149000e+02 </wgt>
<wgt id='1047'> +1.5178000e+02 </wgt>
<wgt id='1048'> +1.5349000e+02 </wgt>
<wgt id='1049'> +1.4902000e+02 </wgt>
<wgt id='1050'> +1.4976000e+02 </wgt>
<wgt id='1051'> +1.5094000e+02 </wgt>
<wgt id='1052'> +1.5017000e+02 </wgt>
<wgt id='1053'> +1.5037000e+02 </wgt>
<wgt id='1054'> +1.5022000e+02 </wgt>
<wgt id='1055'> +1.5347000e+02 </wgt>
<wgt id='1056'> +1.5071000e+02 </wgt>
<wgt id='1057'> +1.4868000e+02 </wgt>
<wgt id='1058'> +1.4970000e+02 </wgt>
<wgt id='1059'> +1.5350000e+02 </wgt>
<wgt id='1060'> +1.4912000e+02 </wgt>
<wgt id='1061'> +1.5610000e+02 </wgt>
<wgt id='1062'> +1.5017000e+02 </wgt>
<wgt id='1063'> +1.5078000e+02 </wgt>
<wgt id='1064'> +1.5336000e+02 </wgt>
<wgt id='1065'> +1.4994000e+02 </wgt>
<wgt id='1066'> +1.5032000e+02 </wgt>
<wgt id='1067'> +1.5089000e+02 </wgt>
<wgt id='1068'> +1.5175000e+02 </wgt>
<wgt id='1069'> +1.6200000e+02 </wgt>
<wgt id='1070'> +1.4978000e+02 </wgt>
<wgt id='1071'> +1.4669000e+02 </wgt>
<wgt id='1072'> +1.4864000e+02 </wgt>
<wgt id='1073'> +1.5070000e+02 </wgt>
<wgt id='1074'> +1.5205000e+02 </wgt>
<wgt id='1075'> +1.4466000e+02 </wgt>
<wgt id='1076'> +1.5359000e+02 </wgt>
<wgt id='1077'> +1.4982000e+02 </wgt>
<wgt id='1078'> +1.4805000e+02 </wgt>
<wgt id='1079'> +1.5186000e+02 </wgt>
<wgt id='1080'> +1.5513000e+02 </wgt>
<wgt id='1081'> +1.4974000e+02 </wgt>
<wgt id='1082'> +1.5118000e+02 </wgt>
<wgt id='1083'> +1.5204000e+02 </wgt>
<wgt id='1084'> +1.4814000e+02 </wgt>
<wgt id='1085'> +1.5513000e+02 </wgt>
<wgt id='1086'> +1.5028000e+02 </wgt>
<wgt id='1087'> +1.4924000e+02 </wgt>
<wgt id='1088'> +1.5029000e+02 </wgt>
<wgt id='1089'> +1.5231000e+02 </wgt>
<wgt id='1090'> +1.5096000e+02 </wgt>
<wgt id='1091'> +1.5635000e+02 </wgt>
<wgt id='1092'> +1.5046000e+02 </wgt>
<wgt id='1093'> +1.4795000e+02 </wgt>
<wgt id='1094'> +1.5135000e+02 </wgt>
<wgt id='1095'> +1.5129000e+02 </wgt>
<wgt id='1096'> +1.5600000e+02 </wgt>
<wgt id='1097'> +1.5012000e+02 </wgt>
<wgt id='1098'> +1.5273000e+02 </wgt>
<wgt id='1099'> +1.5128000e+02 </wgt>
<wgt id='1100'> +1.5371000e+02 </wgt>
<wgt id='1101'> +1.5298000e+02 </wgt>
<wgt id='1102'> +1.5572000e+02 </wgt>
<wgt id='1103'> +1.4763000e+02 </wgt>
<wgt id='1104'> +1.5397000e+02 </wgt>
<wgt id='1105'> +1.5146096e+02 </wgt>
<wgt id='1106'> +6.0808855e+01 </wgt>
<wgt id='1107'> +9.7022375e+01 </wgt>
<wgt id='1108'> +8.4562055e+01 </wgt>
<wgt id='1109'> +6.7900293e+01 </wgt>
<wgt id='1110'> +1.0833698e+02 </wgt>
<wgt id='1111'> +6.4145721e+01 </wgt>
<wgt id='1112'> +5.1506710e+01 </wgt>
<wgt id='1113'> +8.2180519e+01 </wgt>
<wgt id='1114'> +7.0934058e+01 </wgt>
<wgt id='1115'> +7.0706532e+01 </wgt>
<wgt id='1116'> +6.9892876e+01 </wgt>
<wgt id='1117'> +6.9876204e+01 </wgt>
<wgt id='1118'> +7.1140927e+01 </wgt>
<wgt id='1119'> +7.1225538e+01 </wgt>
<wgt id='1120'> +7.2025823e+01 </wgt>
<wgt id='1121'> +7.0934307e+01 </wgt>
<wgt id='1122'> +7.0878135e+01 </wgt>
<wgt id='1123'> +7.0692617e+01 </wgt>
<wgt id='1124'> +7.1828164e+01 </wgt>
<wgt id='1125'> +7.2101917e+01 </wgt>
<wgt id='1126'> +7.0955774e+01 </wgt>
<wgt id='1127'> +7.1016063e+01 </wgt>
<wgt id='1128'> +7.0477501e+01 </wgt>
<wgt id='1129'> +7.0039466e+01 </wgt>
<wgt id='1130'> +7.1439113e+01 </wgt>
<wgt id='1131'> +7.2038872e+01 </wgt>
<wgt id='1132'> +7.1373856e+01 </wgt>
<wgt id='1133'> +6.9743749e+01 </wgt>
<wgt id='1134'> +7.0788072e+01 </wgt>
<wgt id='1135'> +6.9298681e+01 </wgt>
<wgt id='1136'> +6.9985801e+01 </wgt>
<wgt id='1137'> +6.9924963e+01 </wgt>
<wgt id='1138'> +7.1092204e+01 </wgt>
<wgt id='1139'> +7.0186652e+01 </wgt>
<wgt id='1140'> +7.1354685e+01 </wgt>
<wgt id='1141'> +6.9594751e+01 </wgt>
<wgt id='1142'> +7.0390459e+01 </wgt>
<wgt id='1143'> +7.1369977e+01 </wgt>
<wgt id='1144'> +7.1189326e+01 </wgt>
<wgt id='1145'> +7.0834990e+01 </wgt>
<wgt id='1146'> +7.1663703e+01 </wgt>
<wgt id='1147'> +6.9835300e+01 </wgt>
<wgt id='1148'> +7.1260636e+01 </wgt>
<wgt id='1149'> +7.2035447e+01 </wgt>
<wgt id='1150'> +7.1387128e+01 </wgt>
<wgt id='1151'> +7.2119095e+01 </wgt>
<wgt id='1152'> +7.1000931e+01 </wgt>
<wgt id='1153'> +6.9926349e+01 </wgt>
<wgt id='1154'> +7.0893583e+01 </wgt>
<wgt id='1155'> +7.1050488e+01 </wgt>
<wgt id='1156'> +7.0684054e+01 </wgt>
<wgt id='1157'> +7.0911148e+01 </wgt>
<wgt id='1158'> +7.0040359e+01 </wgt>
<wgt id='1159'> +7.0911906e+01 </wgt>
<wgt id='1160'> +7.1771420e+01 </wgt>
<wgt id='1161'> +7.0053689e+01 </wgt>
<wgt id='1162'> +7.1139861e+01 </wgt>
<wgt id='1163'> +7.0345669e+01 </wgt>
<wgt id='1164'> +7.2337474e+01 </wgt>
<wgt id='1165'> +7.0054714e+01 </wgt>
<wgt id='1166'> +7.0756014e+01 </wgt>
<wgt id='1167'> +7.0016051e+01 </wgt>
<wgt id='1168'> +7.0372131e+01 </wgt>
<wgt id='1169'> +7.0999650e+01 </wgt>
<wgt id='1170'> +7.0841073e+01 </wgt>
<wgt id='1171'> +7.1256791e+01 </wgt>
<wgt id='1172'> +7.0508894e+01 </wgt>
<wgt id='1173'> +7.1632715e+01 </wgt>
<wgt id='1174'> +7.1470087e+01 </wgt>
<wgt id='1175'> +7.0537514e+01 </wgt>
<wgt id='1176'> +7.1108311e+01 </wgt>
<wgt id='1177'> +7.1105392e+01 </wgt>
<wgt id='1178'> +7.0825932e+01 </wgt>
<wgt id='1179'> +7.0897259e+01 </wgt>
<wgt id='1180'> +7.1060237e+01 </wgt>
<wgt id='1181'> +6.9325575e+01 </wgt>
<wgt id='1182'> +7.1162117e+01 </wgt>
<wgt id='1183'> +7.0731805e+01 </wgt>
<wgt id='1184'> +6.9981925e+01 </wgt>
<wgt id='1185'> +7.1031564e+01 </wgt>
<wgt id='1186'> +6.9965592e+01 </wgt>
<wgt id='1187'> +7.1664737e+01 </wgt>
<wgt id='1188'> +7.0998029e+01 </wgt>
<wgt id='1189'> +7.1815642e+01 </wgt>
<wgt id='1190'> +7.1247007e+01 </wgt>
<wgt id='1191'> +7.0941748e+01 </wgt>
<wgt id='1192'> +7.0030524e+01 </wgt>
<wgt id='1193'> +7.0725485e+01 </wgt>
<wgt id='1194'> +7.1200570e+01 </wgt>
<wgt id='1195'> +7.0144992e+01 </wgt>
<wgt id='1196'> +7.1439113e+01 </wgt>
<wgt id='1197'> +7.0694199e+01 </wgt>
<wgt id='1198'> +7.1167892e+01 </wgt>
<wgt id='1199'> +7.0962471e+01 </wgt>
<wgt id='1200'> +7.0154441e+01 </wgt>
<wgt id='1201'> +7.1508559e+01 </wgt>
<wgt id='1202'> +7.2086092e+01 </wgt>
<wgt id='1203'> +7.3327227e+01 </wgt>
<wgt id='1204'> +7.1052279e+01 </wgt>
<wgt id='1205'> +7.0405717e+01 </wgt>
<wgt id='1206'> +7.1860677e+01 </wgt>
<wgt id='1207'> +7.1529024e+01 </wgt>
<wgt id='1208'> +7.1037577e+01 </wgt>
<wgt id='1209'> +7.1968637e+01 </wgt>
<wgt id='1210'> +6.9743334e+01 </wgt>
<wgt id='1211'> +7.0888984e+01 </wgt>
<wgt id='1212'> +7.2176155e+01 </wgt>
<wgt id='1213'> +7.1283216e+01 </wgt>
<wgt id='1214'> +7.1763236e+01 </wgt>
<wgt id='1215'> +7.4760997e+01 </wgt>
<wgt id='1216'> +7.1338761e+01 </wgt>
<wgt id='1217'> +7.1469618e+01 </wgt>
<wgt id='1218'> +7.1157443e+01 </wgt>
<wgt id='1219'> +7.1430514e+01 </wgt>
<wgt id='1220'> +7.1490040e+01 </wgt>
<wgt id='1221'> +7.1426563e+01 </wgt>
<wgt id='1222'> +7.1350882e+01 </wgt>
<wgt id='1223'> +7.1322361e+01 </wgt>
<wgt id='1224'> +7.1254263e+01 </wgt>
<wgt id='1225'> +7.1178516e+01 </wgt>
<wgt id='1226'> +7.1225009e+01 </wgt>
<wgt id='1227'> +7.1415994e+01 </wgt>
<wgt id='1228'> +7.1525438e+01 </wgt>
<wgt id='1229'> +7.1180415e+01 </wgt>
<wgt id='1230'> +7.1360803e+01 </wgt>
<wgt id='1231'> +7.1410675e+01 </wgt>
<wgt id='1232'> +7.1341192e+01 </wgt>
<wgt id='1233'> +7.1339366e+01 </wgt>
<wgt id='1234'> +7.1386841e+01 </wgt>
<wgt id='1235'> +7.1425236e+01 </wgt>
<wgt id='1236'> +7.1357267e+01 </wgt>
<wgt id='1237'> +7.1361382e+01 </wgt>
<wgt id='1238'> +7.1349750e+01 </wgt>
<wgt id='1239'> +7.1303243e+01 </wgt>
<wgt id='1240'> +7.1265096e+01 </wgt>
<wgt id='1241'> +7.1398957e+01 </wgt>
<wgt id='1242'> +7.1386874e+01 </wgt>
<wgt id='1243'> +7.1350227e+01 </wgt>
<wgt id='1244'> +7.1146263e+01 </wgt>
<wgt id='1245'> +7.1153698e+01 </wgt>
<wgt id='1246'> +7.1618977e+01 </wgt>
<wgt id='1247'> +7.1488451e+01 </wgt>
<wgt id='1248'> +7.1433476e+01 </wgt>
<wgt id='1249'> +7.1531546e+01 </wgt>
<wgt id='1250'> +7.1383042e+01 </wgt>
<wgt id='1251'> +7.1607576e+01 </wgt>
<wgt id='1252'> +7.1398601e+01 </wgt>
<wgt id='1253'> +7.1299238e+01 </wgt>
<wgt id='1254'> +7.1355507e+01 </wgt>
<wgt id='1255'> +7.1297602e+01 </wgt>
<wgt id='1256'> +7.1275682e+01 </wgt>
<wgt id='1257'> +7.1397749e+01 </wgt>
<wgt id='1258'> +7.1276748e+01 </wgt>
<wgt id='1259'> +7.1261655e+01 </wgt>
<wgt id='1260'> +7.1350811e+01 </wgt>
<wgt id='1261'> +7.1392936e+01 </wgt>
<wgt id='1262'> +7.1408889e+01 </wgt>
<wgt id='1263'> +7.1349133e+01 </wgt>
<wgt id='1264'> +7.1351075e+01 </wgt>
<wgt id='1265'> +7.1326445e+01 </wgt>
<wgt id='1266'> +7.1306429e+01 </wgt>
<wgt id='1267'> +7.1404979e+01 </wgt>
<wgt id='1268'> +7.1294120e+01 </wgt>
<wgt id='1269'> +7.1319203e+01 </wgt>
<wgt id='1270'> +7.1347681e+01 </wgt>
<wgt id='1271'> +7.1243805e+01 </wgt>
<wgt id='1272'> +7.1351108e+01 </wgt>
<wgt id='1273'> +7.1327057e+01 </wgt>
<wgt id='1274'> +7.1288030e+01 </wgt>
<wgt id='1275'> +7.1348748e+01 </wgt>
<wgt id='1276'> +7.1359871e+01 </wgt>
<wgt id='1277'> +7.1351485e+01 </wgt>
<wgt id='1278'> +7.1358743e+01 </wgt>
<wgt id='1279'> +7.1376558e+01 </wgt>
<wgt id='1280'> +7.1312413e+01 </wgt>
<wgt id='1281'> +7.1333271e+01 </wgt>
<wgt id='1282'> +7.1352819e+01 </wgt>
<wgt id='1283'> +7.1302224e+01 </wgt>
<wgt id='1284'> +7.1360714e+01 </wgt>
<wgt id='1285'> +7.1332930e+01 </wgt>
<wgt id='1286'> +7.1356710e+01 </wgt>
<wgt id='1287'> +7.1324698e+01 </wgt>
<wgt id='1288'> +7.1330574e+01 </wgt>
<wgt id='1289'> +7.1302877e+01 </wgt>
<wgt id='1290'> +7.1360624e+01 </wgt>
<wgt id='1291'> +7.1327175e+01 </wgt>
<wgt id='1292'> +7.1334171e+01 </wgt>
<wgt id='1293'> +7.1352110e+01 </wgt>
<wgt id='1294'> +7.1346731e+01 </wgt>
<wgt id='1295'> +7.1341972e+01 </wgt>
<wgt id='1296'> +7.1336576e+01 </wgt>
<wgt id='1297'> +7.1344907e+01 </wgt>
<wgt id='1298'> +7.1332617e+01 </wgt>
<wgt id='1299'> +7.1340396e+01 </wgt>
<wgt id='1300'> +7.1336117e+01 </wgt>
<wgt id='1301'> +7.1339319e+01 </wgt>
<wgt id='1302'> +7.1320418e+01 </wgt>
<wgt id='1303'> +7.1330690e+01 </wgt>
<wgt id='1304'> +7.1340177e+01 </wgt>
<wgt id='1305'> +7.1338448e+01 </wgt>
<wgt id='1306'> +7.1340591e+01 </wgt>
<wgt id='1307'> +7.1344408e+01 </wgt>
<wgt id='1308'> +7.1343316e+01 </wgt>
<wgt id='1309'> +7.1339769e+01 </wgt>
<wgt id='1310'> +7.1347590e+01 </wgt>
<wgt id='1311'> +7.1339624e+01 </wgt>
<wgt id='1312'> +7.1338093e+01 </wgt>
<wgt id='1313'> +7.1329688e+01 </wgt>
<wgt id='1314'> +7.1339717e+01 </wgt>
<wgt id='1315'> +7.1345562e+01 </wgt>
<wgt id='1316'> +7.1338412e+01 </wgt>
<wgt id='1317'> +6.8036092e+01 </wgt>
<wgt id='1318'> +7.4715638e+01 </wgt>
<wgt id='1319'> +6.0621138e+01 </wgt>
<wgt id='1320'> +6.9566037e+01 </wgt>
<wgt id='1321'> +6.9536713e+01 </wgt>
<wgt id='1322'> +6.9719740e+01 </wgt>
<wgt id='1323'> +6.9318689e+01 </wgt>
<wgt id='1324'> +6.9252590e+01 </wgt>
<wgt id='1325'> +6.9701832e+01 </wgt>
<wgt id='1326'> +6.9481557e+01 </wgt>
<wgt id='1327'> +6.9710017e+01 </wgt>
<wgt id='1328'> +6.9353758e+01 </wgt>
<wgt id='1329'> +6.8829139e+01 </wgt>
<wgt id='1330'> +6.9991033e+01 </wgt>
<wgt id='1331'> +7.0612252e+01 </wgt>
<wgt id='1332'> +6.8861309e+01 </wgt>
<wgt id='1333'> +6.7920789e+01 </wgt>
<wgt id='1334'> +7.0569815e+01 </wgt>
<wgt id='1335'> +7.0708060e+01 </wgt>
<wgt id='1336'> +6.8803962e+01 </wgt>
<wgt id='1337'> +6.8490210e+01 </wgt>
<wgt id='1338'> +7.0841867e+01 </wgt>
<wgt id='1339'> +7.0262078e+01 </wgt>
<wgt id='1340'> +6.8788415e+01 </wgt>
<wgt id='1341'> +6.9710896e+01 </wgt>
<wgt id='1342'> +6.9249516e+01 </wgt>
<wgt id='1343'> +6.9367772e+01 </wgt>
<wgt id='1344'> +6.9735653e+01 </wgt>
<wgt id='1345'> +6.9585072e+01 </wgt>
<wgt id='1346'> +6.9504679e+01 </wgt>
<wgt id='1347'> +6.9513575e+01 </wgt>
<wgt id='1348'> +6.9633606e+01 </wgt>
<wgt id='1349'> +6.9303722e+01 </wgt>
<wgt id='1350'> +6.9658290e+01 </wgt>
<wgt id='1351'> +6.9727965e+01 </wgt>
<wgt id='1352'> +6.9356293e+01 </wgt>
<wgt id='1353'> +6.9350344e+01 </wgt>
<wgt id='1354'> +7.0036576e+01 </wgt>
<wgt id='1355'> +6.9689357e+01 </wgt>
<wgt id='1356'> +6.9450733e+01 </wgt>
<wgt id='1357'> +6.9773772e+01 </wgt>
<wgt id='1358'> +6.9186944e+01 </wgt>
<wgt id='1359'> +6.9459609e+01 </wgt>
<wgt id='1360'> +6.9644944e+01 </wgt>
<wgt id='1361'> +6.9723135e+01 </wgt>
<wgt id='1362'> +6.9445392e+01 </wgt>
<wgt id='1363'> +6.9497783e+01 </wgt>
<wgt id='1364'> +6.9851313e+01 </wgt>
<wgt id='1365'> +6.9042975e+01 </wgt>
<wgt id='1366'> +6.9573239e+01 </wgt>
<wgt id='1367'> +6.9302328e+01 </wgt>
<wgt id='1368'> +6.9009688e+01 </wgt>
<wgt id='1369'> +6.8852363e+01 </wgt>
<wgt id='1370'> +6.9174379e+01 </wgt>
<wgt id='1371'> +6.9551569e+01 </wgt>
<wgt id='1372'> +6.9548769e+01 </wgt>
<wgt id='1373'> +6.7192336e+01 </wgt>
<wgt id='1374'> +7.0019490e+01 </wgt>
<wgt id='1375'> +6.9056632e+01 </wgt>
<wgt id='1376'> +7.0355416e+01 </wgt>
<wgt id='1377'> +6.6224824e+01 </wgt>
<wgt id='1378'> +7.2973435e+01 </wgt>
<wgt id='1379'> +7.0002892e+01 </wgt>
<wgt id='1380'> +6.6695309e+01 </wgt>
<wgt id='1381'> +7.3341142e+01 </wgt>
<wgt id='1382'> +5.5747694e+01 </wgt>
<wgt id='1383'> +7.1254133e+01 </wgt>
<wgt id='1384'> +7.0348575e+01 </wgt>
<wgt id='1385'> +8.7253119e+01 </wgt>
<wgt id='1386'> +8.7267409e+01 </wgt>
<wgt id='1387'> +8.7241658e+01 </wgt>
<wgt id='1388'> +8.6974102e+01 </wgt>
<wgt id='1389'> +8.7736645e+01 </wgt>
<wgt id='1390'> +8.7078016e+01 </wgt>
<wgt id='1391'> +8.7463248e+01 </wgt>
<wgt id='1392'> +8.7101558e+01 </wgt>
<wgt id='1393'> +8.7358596e+01 </wgt>
<wgt id='1394'> +8.7067928e+01 </wgt>
<wgt id='1395'> +8.7485949e+01 </wgt>
<wgt id='1396'> +8.6672220e+01 </wgt>
<wgt id='1397'> +8.7559781e+01 </wgt>
<wgt id='1398'> +8.7660670e+01 </wgt>
<wgt id='1399'> +8.6943681e+01 </wgt>
<wgt id='1400'> +8.6895135e+01 </wgt>
<wgt id='1401'> +8.7526231e+01 </wgt>
<wgt id='1402'> +8.7107453e+01 </wgt>
<wgt id='1403'> +8.7321033e+01 </wgt>
<wgt id='1404'> +8.8231826e+01 </wgt>
<wgt id='1405'> +8.6778630e+01 </wgt>
<wgt id='1406'> +8.7132906e+01 </wgt>
<wgt id='1407'> +8.7474455e+01 </wgt>
<wgt id='1408'> +8.7232264e+01 </wgt>
<wgt id='1409'> +8.7299347e+01 </wgt>
<wgt id='1410'> +8.7213168e+01 </wgt>
<wgt id='1411'> +8.7315083e+01 </wgt>
<wgt id='1412'> +8.7501510e+01 </wgt>
<wgt id='1413'> +8.6899418e+01 </wgt>
<wgt id='1414'> +8.7577254e+01 </wgt>
<wgt id='1415'> +8.7048401e+01 </wgt>
<wgt id='1416'> +8.7378332e+01 </wgt>
<wgt id='1417'> +8.7179717e+01 </wgt>
<wgt id='1418'> +8.7614144e+01 </wgt>
<wgt id='1419'> +8.6472229e+01 </wgt>
<wgt id='1420'> +8.6854612e+01 </wgt>
<wgt id='1421'> +8.7232235e+01 </wgt>
<wgt id='1422'> +8.7441112e+01 </wgt>
<wgt id='1423'> +8.7039719e+01 </wgt>
<wgt id='1424'> +8.7391872e+01 </wgt>
<wgt id='1425'> +8.6923020e+01 </wgt>
<wgt id='1426'> +8.7422096e+01 </wgt>
<wgt id='1427'> +8.7099605e+01 </wgt>
<wgt id='1428'> +8.7643325e+01 </wgt>
<wgt id='1429'> +8.7203546e+01 </wgt>
<wgt id='1430'> +8.7222339e+01 </wgt>
<wgt id='1431'> +8.7286202e+01 </wgt>
<wgt id='1432'> +8.7183781e+01 </wgt>
<wgt id='1433'> +8.7323043e+01 </wgt>
<wgt id='1434'> +8.7217587e+01 </wgt>
<wgt id='1435'> +8.7279885e+01 </wgt>
<wgt id='1436'> +0.0000000e+00 </wgt>
<wgt id='1437'> +0.0000000e+00 </wgt>
<wgt id='1438'> +0.0000000e+00 </wgt>
<wgt id='1439'> +0.0000000e+00 </wgt>
<wgt id='1440'> +0.0000000e+00 </wgt>
<wgt id='1441'> +0.0000000e+00 </wgt>
<wgt id='1442'> +0.0000000e+00 </wgt>
<wgt id='1443'> +0.0000000e+00 </wgt>
<wgt id='1444'> +0.0000000e+00 </wgt>
<wgt id='1445'> +0.0000000e+00 </wgt>
<wgt id='1446'> +0.0000000e+00 </wgt>
<wgt id='1447'> +0.0000000e+00 </wgt>
<wgt id='1448'> +0.0000000e+00 </wgt>
<wgt id='1449'> +0.0000000e+00 </wgt>
<wgt id='1450'> +0.0000000e+00 </wgt>
<wgt id='1451'> +0.0000000e+00 </wgt>
<wgt id='1452'> +0.0000000e+00 </wgt>
<wgt id='1453'> +0.0000000e+00 </wgt>
<wgt id='1454'> +0.0000000e+00 </wgt>
<wgt id='1455'> +0.0000000e+00 </wgt>
<wgt id='1456'> +0.0000000e+00 </wgt>
<wgt id='1457'> +0.0000000e+00 </wgt>
<wgt id='1458'> +0.0000000e+00 </wgt>
<wgt id='1459'> +0.0000000e+00 </wgt>
<wgt id='1460'> +0.0000000e+00 </wgt>
<wgt id='1461'> +0.0000000e+00 </wgt>
<wgt id='1462'> +0.0000000e+00 </wgt>
<wgt id='1463'> +0.0000000e+00 </wgt>
<wgt id='1464'> +0.0000000e+00 </wgt>
<wgt id='1465'> +7.4599366e+01 </wgt>
<wgt id='1466'> +7.2202162e+01 </wgt>
<wgt id='1467'> +7.1714810e+01 </wgt>
<wgt id='1468'> +7.2765010e+01 </wgt>
<wgt id='1469'> +7.2242377e+01 </wgt>
<wgt id='1470'> +7.1851086e+01 </wgt>
<wgt id='1471'> +7.2342705e+01 </wgt>
<wgt id='1472'> +7.2637746e+01 </wgt>
<wgt id='1473'> +7.1847691e+01 </wgt>
<wgt id='1474'> +7.1252880e+01 </wgt>
<wgt id='1475'> +7.2744447e+01 </wgt>
<wgt id='1476'> +7.3907642e+01 </wgt>
<wgt id='1477'> +7.2231364e+01 </wgt>
<wgt id='1478'> +7.1872507e+01 </wgt>
<wgt id='1479'> +7.2179060e+01 </wgt>
<wgt id='1480'> +7.0925339e+01 </wgt>
<wgt id='1481'> +7.2785536e+01 </wgt>
<wgt id='1482'> +7.1805232e+01 </wgt>
<wgt id='1483'> +7.1781505e+01 </wgt>
<wgt id='1484'> +7.1976510e+01 </wgt>
<wgt id='1485'> +7.1653077e+01 </wgt>
<wgt id='1486'> +7.1921021e+01 </wgt>
<wgt id='1487'> +7.2364781e+01 </wgt>
<wgt id='1488'> +7.2514962e+01 </wgt>
<wgt id='1489'> +7.1979629e+01 </wgt>
<wgt id='1490'> +7.2331771e+01 </wgt>
<wgt id='1491'> +7.2558021e+01 </wgt>
<wgt id='1492'> +7.2226903e+01 </wgt>
<wgt id='1493'> +7.2073018e+01 </wgt>
<wgt id='1494'> +7.2267095e+01 </wgt>
<wgt id='1495'> +7.2183832e+01 </wgt>
<wgt id='1496'> +7.2400678e+01 </wgt>
<wgt id='1497'> +7.2198126e+01 </wgt>
<wgt id='1498'> +7.2161130e+01 </wgt>
<wgt id='1499'> +7.2168436e+01 </wgt>
<wgt id='1500'> +7.2373205e+01 </wgt>
<wgt id='1501'> +7.2238056e+01 </wgt>
<wgt id='1502'> +7.2195843e+01 </wgt>
<wgt id='1503'> +7.2216791e+01 </wgt>
<wgt id='1504'> +7.2232113e+01 </wgt>
<wgt id='1505'> +7.2325017e+01 </wgt>
<wgt id='1506'> +7.2340949e+01 </wgt>
<wgt id='1507'> +7.2290986e+01 </wgt>
<wgt id='1508'> +7.2243073e+01 </wgt>
<wgt id='1509'> +7.2135242e+01 </wgt>
<wgt id='1510'> +7.2373060e+01 </wgt>
<wgt id='1511'> +7.2217359e+01 </wgt>
<wgt id='1512'> +7.2210022e+01 </wgt>
<wgt id='1513'> +7.2133413e+01 </wgt>
<wgt id='1514'> +7.2267058e+01 </wgt>
<wgt id='1515'> +7.2251230e+01 </wgt>
<wgt id='1516'> +7.2062323e+01 </wgt>
<wgt id='1517'> +7.2220310e+01 </wgt>
<wgt id='1518'> +7.2076895e+01 </wgt>
<wgt id='1519'> +7.2054242e+01 </wgt>
<wgt id='1520'> +7.2122274e+01 </wgt>
<wgt id='1521'> +7.2226699e+01 </wgt>
<wgt id='1522'> +7.2150131e+01 </wgt>
<wgt id='1523'> +7.2276958e+01 </wgt>
<wgt id='1524'> +7.2260188e+01 </wgt>
<wgt id='1525'> +7.2255577e+01 </wgt>
<wgt id='1526'> +7.2150101e+01 </wgt>
<wgt id='1527'> +7.2324627e+01 </wgt>
<wgt id='1528'> +7.2245296e+01 </wgt>
<wgt id='1529'> +7.2180080e+01 </wgt>
<wgt id='1530'> +7.2191831e+01 </wgt>
<wgt id='1531'> +7.2260329e+01 </wgt>
<wgt id='1532'> +7.2298695e+01 </wgt>
<wgt id='1533'> +7.2215313e+01 </wgt>
<wgt id='1534'> +7.2266577e+01 </wgt>
<wgt id='1535'> +7.2234629e+01 </wgt>
<wgt id='1536'> +7.2136095e+01 </wgt>
<wgt id='1537'> +7.2133050e+01 </wgt>
<wgt id='1538'> +7.2176866e+01 </wgt>
<wgt id='1539'> +7.2217223e+01 </wgt>
<wgt id='1540'> +7.2064912e+01 </wgt>
<wgt id='1541'> +7.2176318e+01 </wgt>
<wgt id='1542'> +7.2232871e+01 </wgt>
<wgt id='1543'> +7.2131334e+01 </wgt>
<wgt id='1544'> +7.2152548e+01 </wgt>
<wgt id='1545'> +7.2231106e+01 </wgt>
<wgt id='1546'> +7.2197278e+01 </wgt>
<wgt id='1547'> +7.2263409e+01 </wgt>
<wgt id='1548'> +7.2225503e+01 </wgt>
<wgt id='1549'> +7.2165449e+01 </wgt>
<wgt id='1550'> +7.2265830e+01 </wgt>
<wgt id='1551'> +7.2208588e+01 </wgt>
<wgt id='1552'> +7.2278091e+01 </wgt>
<wgt id='1553'> +7.2250794e+01 </wgt>
<wgt id='1554'> +7.2248682e+01 </wgt>
<wgt id='1555'> +7.2187731e+01 </wgt>
<wgt id='1556'> +7.2235827e+01 </wgt>
<wgt id='1557'> +7.2143676e+01 </wgt>
<wgt id='1558'> +7.2187783e+01 </wgt>
<wgt id='1559'> +7.2233370e+01 </wgt>
<wgt id='1560'> +7.2154032e+01 </wgt>
<wgt id='1561'> +7.2165551e+01 </wgt>
<wgt id='1562'> +7.2241296e+01 </wgt>
<wgt id='1563'> +7.2210532e+01 </wgt>
<wgt id='1564'> +7.2194330e+01 </wgt>
<wgt id='1565'> +7.2186975e+01 </wgt>
<wgt id='1566'> +7.2205782e+01 </wgt>
<wgt id='1567'> +6.9834517e+01 </wgt>
<wgt id='1568'> +7.4521623e+01 </wgt>
<wgt id='1569'> +7.1698340e+01 </wgt>
<wgt id='1570'> +7.1300410e+01 </wgt>
<wgt id='1571'> +7.2255081e+01 </wgt>
<wgt id='1572'> +7.0782597e+01 </wgt>
<wgt id='1573'> +7.1473429e+01 </wgt>
<wgt id='1574'> +7.1752871e+01 </wgt>
<wgt id='1575'> +7.1780493e+01 </wgt>
<wgt id='1576'> +7.2323218e+01 </wgt>
<wgt id='1577'> +7.1914282e+01 </wgt>
<wgt id='1578'> +7.1475446e+01 </wgt>
<wgt id='1579'> +7.1043957e+01 </wgt>
<wgt id='1580'> +7.2776380e+01 </wgt>
<wgt id='1581'> +7.1511981e+01 </wgt>
<wgt id='1582'> +7.0842256e+01 </wgt>
<wgt id='1583'> +7.1834747e+01 </wgt>
<wgt id='1584'> +7.1694062e+01 </wgt>
<wgt id='1585'> +7.2653259e+01 </wgt>
<wgt id='1586'> +7.1034047e+01 </wgt>
<wgt id='1587'> +7.1612096e+01 </wgt>
<wgt id='1588'> +7.1965843e+01 </wgt>
<wgt id='1589'> +7.2273995e+01 </wgt>
<wgt id='1590'> +7.1821217e+01 </wgt>
<wgt id='1591'> +7.1683230e+01 </wgt>
<wgt id='1592'> +7.1459080e+01 </wgt>
<wgt id='1593'> +7.1445995e+01 </wgt>
<wgt id='1594'> +7.1752745e+01 </wgt>
<wgt id='1595'> +7.1585588e+01 </wgt>
<wgt id='1596'> +7.1784019e+01 </wgt>
<wgt id='1597'> +7.1796794e+01 </wgt>
<wgt id='1598'> +7.1624021e+01 </wgt>
<wgt id='1599'> +7.1636165e+01 </wgt>
<wgt id='1600'> +7.1725612e+01 </wgt>
<wgt id='1601'> +7.1599241e+01 </wgt>
<wgt id='1602'> +7.1608699e+01 </wgt>
<wgt id='1603'> +7.1774720e+01 </wgt>
<wgt id='1604'> +7.1708487e+01 </wgt>
<wgt id='1605'> +7.1763456e+01 </wgt>
<wgt id='1606'> +7.1655489e+01 </wgt>
<wgt id='1607'> +7.1692934e+01 </wgt>
<wgt id='1608'> +7.1619902e+01 </wgt>
<wgt id='1609'> +7.1635443e+01 </wgt>
<wgt id='1610'> +7.1809442e+01 </wgt>
<wgt id='1611'> +7.1824525e+01 </wgt>
<wgt id='1612'> +7.1591854e+01 </wgt>
<wgt id='1613'> +7.1662126e+01 </wgt>
<wgt id='1614'> +7.1808658e+01 </wgt>
<wgt id='1615'> +7.1643370e+01 </wgt>
<wgt id='1616'> +7.1810092e+01 </wgt>
<wgt id='1617'> +7.1773401e+01 </wgt>
<wgt id='1618'> +7.1737779e+01 </wgt>
<wgt id='1619'> +7.1685392e+01 </wgt>
<wgt id='1620'> +7.1682281e+01 </wgt>
<wgt id='1621'> +7.1768154e+01 </wgt>
<wgt id='1622'> +7.1594493e+01 </wgt>
<wgt id='1623'> +7.1659133e+01 </wgt>
<wgt id='1624'> +7.1684045e+01 </wgt>
<wgt id='1625'> +7.1697772e+01 </wgt>
<wgt id='1626'> +7.1768611e+01 </wgt>
<wgt id='1627'> +7.1581538e+01 </wgt>
<wgt id='1628'> +7.1662429e+01 </wgt>
<wgt id='1629'> +7.1678750e+01 </wgt>
<wgt id='1630'> +7.1701193e+01 </wgt>
<wgt id='1631'> +7.1713018e+01 </wgt>
<wgt id='1632'> +7.1633453e+01 </wgt>
<wgt id='1633'> +7.1787440e+01 </wgt>
<wgt id='1634'> +7.1642777e+01 </wgt>
<wgt id='1635'> +7.1649967e+01 </wgt>
<wgt id='1636'> +7.1699056e+01 </wgt>
<wgt id='1637'> +7.1699261e+01 </wgt>
<wgt id='1638'> +7.1721523e+01 </wgt>
<wgt id='1639'> +7.1681317e+01 </wgt>
<wgt id='1640'> +7.1706841e+01 </wgt>
<wgt id='1641'> +7.1689663e+01 </wgt>
<wgt id='1642'> +7.1715580e+01 </wgt>
<wgt id='1643'> +7.1703663e+01 </wgt>
<wgt id='1644'> +7.1722914e+01 </wgt>
<wgt id='1645'> +7.1681606e+01 </wgt>
<wgt id='1646'> +7.1701553e+01 </wgt>
<wgt id='1647'> +7.1638970e+01 </wgt>
<wgt id='1648'> +7.1692584e+01 </wgt>
<wgt id='1649'> +7.1785038e+01 </wgt>
<wgt id='1650'> +7.1718068e+01 </wgt>
<wgt id='1651'> +7.1717434e+01 </wgt>
<wgt id='1652'> +7.1708151e+01 </wgt>
<wgt id='1653'> +7.1670563e+01 </wgt>
<wgt id='1654'> +7.1640068e+01 </wgt>
<wgt id='1655'> +7.1735426e+01 </wgt>
<wgt id='1656'> +7.1613300e+01 </wgt>
<wgt id='1657'> +7.1657850e+01 </wgt>
<wgt id='1658'> +7.1658193e+01 </wgt>
<wgt id='1659'> +7.1679832e+01 </wgt>
<wgt id='1660'> +7.1648131e+01 </wgt>
<wgt id='1661'> +7.1661170e+01 </wgt>
<wgt id='1662'> +7.1687060e+01 </wgt>
<wgt id='1663'> +7.1648312e+01 </wgt>
<wgt id='1664'> +7.1681891e+01 </wgt>
<wgt id='1665'> +7.1721285e+01 </wgt>
<wgt id='1666'> +7.1709974e+01 </wgt>
<wgt id='1667'> +7.1661583e+01 </wgt>
<wgt id='1668'> +7.1705638e+01 </wgt>
<wgt id='1669'> +7.1713016e+01 </wgt>
<wgt id='1670'> +6.9512418e+01 </wgt>
<wgt id='1671'> +7.3770964e+01 </wgt>
<wgt id='1672'> +7.2212374e+01 </wgt>
<wgt id='1673'> +7.2715560e+01 </wgt>
<wgt id='1674'> +7.1158924e+01 </wgt>
<wgt id='1675'> +7.2171571e+01 </wgt>
<wgt id='1676'> +7.0499093e+01 </wgt>
<wgt id='1677'> +7.3094647e+01 </wgt>
<wgt id='1678'> +7.1785178e+01 </wgt>
<wgt id='1679'> +7.2205601e+01 </wgt>
<wgt id='1680'> +7.2621857e+01 </wgt>
<wgt id='1681'> +7.1822531e+01 </wgt>
<wgt id='1682'> +7.2640563e+01 </wgt>
<wgt id='1683'> +7.1975184e+01 </wgt>
<wgt id='1684'> +7.2369928e+01 </wgt>
<wgt id='1685'> +7.2345322e+01 </wgt>
<wgt id='1686'> +7.1958397e+01 </wgt>
<wgt id='1687'> +7.2149976e+01 </wgt>
<wgt id='1688'> +7.1679612e+01 </wgt>
<wgt id='1689'> +7.2254101e+01 </wgt>
<wgt id='1690'> +7.2494699e+01 </wgt>
<wgt id='1691'> +7.2278054e+01 </wgt>
<wgt id='1692'> +7.2220303e+01 </wgt>
<wgt id='1693'> +7.2116991e+01 </wgt>
<wgt id='1694'> +7.2095345e+01 </wgt>
<wgt id='1695'> +7.2249275e+01 </wgt>
<wgt id='1696'> +7.1954528e+01 </wgt>
<wgt id='1697'> +7.2251717e+01 </wgt>
<wgt id='1698'> +7.2604714e+01 </wgt>
<wgt id='1699'> +7.2505777e+01 </wgt>
<wgt id='1700'> +7.3100349e+01 </wgt>
<wgt id='1701'> +7.2446431e+01 </wgt>
<wgt id='1702'> +7.2172320e+01 </wgt>
<wgt id='1703'> +6.9834517e+01 </wgt>
<wgt id='1704'> +7.4521623e+01 </wgt>
<wgt id='1705'> +7.1702943e+01 </wgt>
<wgt id='1706'> +7.0410601e+01 </wgt>
<wgt id='1707'> +7.2082018e+01 </wgt>
<wgt id='1708'> +7.1478064e+01 </wgt>
<wgt id='1709'> +7.2715654e+01 </wgt>
<wgt id='1710'> +7.0912587e+01 </wgt>
<wgt id='1711'> +7.1630905e+01 </wgt>
<wgt id='1712'> +7.1439746e+01 </wgt>
<wgt id='1713'> +7.1201500e+01 </wgt>
<wgt id='1714'> +7.1255571e+01 </wgt>
<wgt id='1715'> +7.2336222e+01 </wgt>
<wgt id='1716'> +7.1906225e+01 </wgt>
<wgt id='1717'> +7.1920448e+01 </wgt>
<wgt id='1718'> +7.1953634e+01 </wgt>
<wgt id='1719'> +7.1689832e+01 </wgt>
<wgt id='1720'> +7.1608885e+01 </wgt>
<wgt id='1721'> +7.1494500e+01 </wgt>
<wgt id='1722'> +7.2011480e+01 </wgt>
<wgt id='1723'> +7.1619874e+01 </wgt>
<wgt id='1724'> +7.1400461e+01 </wgt>
<wgt id='1725'> +7.2164857e+01 </wgt>
<wgt id='1726'> +7.1946467e+01 </wgt>
<wgt id='1727'> +7.2607386e+01 </wgt>
<wgt id='1728'> +7.1734045e+01 </wgt>
<wgt id='1729'> +7.2207623e+01 </wgt>
<wgt id='1730'> +7.1510715e+01 </wgt>
<wgt id='1731'> +7.1851689e+01 </wgt>
<wgt id='1732'> +7.1818218e+01 </wgt>
<wgt id='1733'> +7.2124314e+01 </wgt>
<wgt id='1734'> +7.1768142e+01 </wgt>
<wgt id='1735'> +7.1706192e+01 </wgt>
<wgt id='1736'> +6.9512418e+01 </wgt>
<wgt id='1737'> +7.3770964e+01 </wgt>
<wgt id='1738'> +7.2620989e+01 </wgt>
<wgt id='1739'> +7.2509816e+01 </wgt>
<wgt id='1740'> +7.2731775e+01 </wgt>
<wgt id='1741'> +7.2778765e+01 </wgt>
<wgt id='1742'> +7.2463364e+01 </wgt>
<wgt id='1743'> +7.2731192e+01 </wgt>
<wgt id='1744'> +7.2511057e+01 </wgt>
<wgt id='1745'> +7.2899066e+01 </wgt>
<wgt id='1746'> +7.2349850e+01 </wgt>
<wgt id='1747'> +7.2644449e+01 </wgt>
<wgt id='1748'> +7.2600270e+01 </wgt>
<wgt id='1749'> +7.2268681e+01 </wgt>
<wgt id='1750'> +7.2994458e+01 </wgt>
<wgt id='1751'> +7.2359426e+01 </wgt>
<wgt id='1752'> +7.2885624e+01 </wgt>
<wgt id='1753'> +7.2760786e+01 </wgt>
<wgt id='1754'> +7.2409646e+01 </wgt>
<wgt id='1755'> +7.2919437e+01 </wgt>
<wgt id='1756'> +7.2342863e+01 </wgt>
<wgt id='1757'> +7.2582704e+01 </wgt>
<wgt id='1758'> +7.2637672e+01 </wgt>
<wgt id='1759'> +7.2842623e+01 </wgt>
<wgt id='1760'> +7.2340411e+01 </wgt>
<wgt id='1761'> +7.2067486e+01 </wgt>
<wgt id='1762'> +7.2883776e+01 </wgt>
<wgt id='1763'> +7.2515183e+01 </wgt>
<wgt id='1764'> +7.2810712e+01 </wgt>
<wgt id='1765'> +7.3127910e+01 </wgt>
<wgt id='1766'> +7.2194995e+01 </wgt>
<wgt id='1767'> +7.2620989e+01 </wgt>
<wgt id='1768'> +7.2761528e+01 </wgt>
<wgt id='1769'> +7.2370190e+01 </wgt>
<wgt id='1770'> +7.2757289e+01 </wgt>
<wgt id='1771'> +7.2454259e+01 </wgt>
<wgt id='1772'> +7.2720452e+01 </wgt>
<wgt id='1773'> +7.2662790e+01 </wgt>
<wgt id='1774'> +7.4021588e+01 </wgt>
<wgt id='1775'> +7.1315677e+01 </wgt>
<wgt id='1776'> +7.2731494e+01 </wgt>
<wgt id='1777'> +7.2541586e+01 </wgt>
<wgt id='1778'> +7.2389959e+01 </wgt>
<wgt id='1779'> +7.2678367e+01 </wgt>
<wgt id='1780'> +7.2306262e+01 </wgt>
<wgt id='1781'> +7.2625480e+01 </wgt>
<wgt id='1782'> +7.2548122e+01 </wgt>
<wgt id='1783'> +7.2687849e+01 </wgt>
<wgt id='1784'> +7.2703027e+01 </wgt>
<wgt id='1785'> +7.2533199e+01 </wgt>
<wgt id='1786'> +7.2774174e+01 </wgt>
<wgt id='1787'> +7.2462308e+01 </wgt>
<wgt id='1788'> +7.3008161e+01 </wgt>
<wgt id='1789'> +7.2237692e+01 </wgt>
<wgt id='1790'> +7.2467375e+01 </wgt>
<wgt id='1791'> +7.2774540e+01 </wgt>
<wgt id='1792'> +7.2847578e+01 </wgt>
<wgt id='1793'> +7.2390871e+01 </wgt>
<wgt id='1794'> +7.2441328e+01 </wgt>
<wgt id='1795'> +7.2793459e+01 </wgt>
<wgt id='1796'> +7.2582265e+01 </wgt>
<wgt id='1797'> +7.2585451e+01 </wgt>
<wgt id='1798'> +7.2580574e+01 </wgt>
<wgt id='1799'> +7.2646880e+01 </wgt>
<wgt id='1800'> +7.2541501e+01 </wgt>
<wgt id='1801'> +7.2694909e+01 </wgt>
<wgt id='1802'> +7.2421253e+01 </wgt>
<wgt id='1803'> +7.2735079e+01 </wgt>
<wgt id='1804'> +7.2361820e+01 </wgt>
<wgt id='1805'> +7.2868105e+01 </wgt>
<wgt id='1806'> +7.1970297e+01 </wgt>
<wgt id='1807'> +7.3110872e+01 </wgt>
<wgt id='1808'> +7.2407913e+01 </wgt>
<wgt id='1809'> +7.2907533e+01 </wgt>
<wgt id='1810'> +7.2591440e+01 </wgt>
<wgt id='1811'> +7.2745642e+01 </wgt>
<wgt id='1812'> +7.2120259e+01 </wgt>
<wgt id='1813'> +7.2713732e+01 </wgt>
<wgt id='1814'> +7.2463258e+01 </wgt>
<wgt id='1815'> +7.1736760e+01 </wgt>
<wgt id='1816'> +7.2628534e+01 </wgt>
<wgt id='1817'> +7.3940210e+01 </wgt>
<wgt id='1818'> +7.1480878e+01 </wgt>
<wgt id='1819'> +7.2571871e+01 </wgt>
<wgt id='1820'> +7.1611235e+01 </wgt>
<wgt id='1821'> +7.2419805e+01 </wgt>
<wgt id='1822'> +7.3101034e+01 </wgt>
<wgt id='1823'> +7.2641658e+01 </wgt>
<wgt id='1824'> +6.9257770e+01 </wgt>
<wgt id='1825'> +6.9249089e+01 </wgt>
<wgt id='1826'> +6.9240434e+01 </wgt>
<wgt id='1827'> +6.9231580e+01 </wgt>
<wgt id='1828'> +6.9222769e+01 </wgt>
<wgt id='1829'> +6.9213824e+01 </wgt>
<wgt id='1830'> +6.9205268e+01 </wgt>
<wgt id='1831'> +6.9195850e+01 </wgt>
<wgt id='1832'> +6.9187152e+01 </wgt>
<wgt id='1833'> +6.9178332e+01 </wgt>
<wgt id='1834'> +6.9169558e+01 </wgt>
<wgt id='1835'> +6.9160857e+01 </wgt>
<wgt id='1836'> +6.9152039e+01 </wgt>
<wgt id='1837'> +6.9143342e+01 </wgt>
<wgt id='1838'> +6.9133947e+01 </wgt>
<wgt id='1839'> +6.9125303e+01 </wgt>
<wgt id='1840'> +6.9116440e+01 </wgt>
<wgt id='1841'> +6.9107652e+01 </wgt>
<wgt id='1842'> +6.9098788e+01 </wgt>
<wgt id='1843'> +6.9090160e+01 </wgt>
<wgt id='1844'> +6.9081362e+01 </wgt>
<wgt id='1845'> +6.9072063e+01 </wgt>
<wgt id='1846'> +6.9063419e+01 </wgt>
<wgt id='1847'> +6.9054568e+01 </wgt>
<wgt id='1848'> +6.9045767e+01 </wgt>
<wgt id='1849'> +6.9036978e+01 </wgt>
<wgt id='1850'> +6.9028287e+01 </wgt>
<wgt id='1851'> +6.9018881e+01 </wgt>
<wgt id='1852'> +6.9010193e+01 </wgt>
<wgt id='1853'> +6.9001553e+01 </wgt>
<wgt id='1854'> +6.8992625e+01 </wgt>
<wgt id='1855'> +7.0856702e+01 </wgt>
<wgt id='1856'> +7.0421829e+01 </wgt>
<wgt id='1857'> +7.1392372e+01 </wgt>
<wgt id='1858'> +6.9957935e+01 </wgt>
<wgt id='1859'> +7.0625183e+01 </wgt>
<wgt id='1860'> +7.0909336e+01 </wgt>
<wgt id='1861'> +7.0972655e+01 </wgt>
<wgt id='1862'> +7.1506831e+01 </wgt>
<wgt id='1863'> +7.1073051e+01 </wgt>
<wgt id='1864'> +7.0640581e+01 </wgt>
<wgt id='1865'> +7.0205822e+01 </wgt>
<wgt id='1866'> +7.1966192e+01 </wgt>
<wgt id='1867'> +7.0688023e+01 </wgt>
<wgt id='1868'> +7.0031715e+01 </wgt>
<wgt id='1869'> +7.0979876e+01 </wgt>
<wgt id='1870'> +7.0786712e+01 </wgt>
<wgt id='1871'> +7.1842569e+01 </wgt>
<wgt id='1872'> +7.0184926e+01 </wgt>
<wgt id='1873'> +7.0763843e+01 </wgt>
<wgt id='1874'> +7.1150238e+01 </wgt>
<wgt id='1875'> +7.1462819e+01 </wgt>
<wgt id='1876'> +7.0954767e+01 </wgt>
<wgt id='1877'> +7.0833989e+01 </wgt>
<wgt id='1878'> +7.0634406e+01 </wgt>
<wgt id='1879'> +7.0587766e+01 </wgt>
<wgt id='1880'> +7.0884259e+01 </wgt>
<wgt id='1881'> +7.0713309e+01 </wgt>
<wgt id='1882'> +7.0974611e+01 </wgt>
<wgt id='1883'> +7.0969756e+01 </wgt>
<wgt id='1884'> +7.0764689e+01 </wgt>
<wgt id='1885'> +7.0774162e+01 </wgt>
<wgt id='1886'> +7.0923478e+01 </wgt>
<wgt id='1887'> +7.0747770e+01 </wgt>
<wgt id='1888'> +7.0758018e+01 </wgt>
<wgt id='1889'> +7.0928763e+01 </wgt>
<wgt id='1890'> +7.0857674e+01 </wgt>
<wgt id='1891'> +7.0923356e+01 </wgt>
<wgt id='1892'> +7.0816229e+01 </wgt>
<wgt id='1893'> +7.0846951e+01 </wgt>
<wgt id='1894'> +7.0766770e+01 </wgt>
<wgt id='1895'> +7.0793712e+01 </wgt>
<wgt id='1896'> +7.0958216e+01 </wgt>
<wgt id='1897'> +7.0977638e+01 </wgt>
<wgt id='1898'> +7.0772188e+01 </wgt>
<wgt id='1899'> +7.0817373e+01 </wgt>
<wgt id='1900'> +7.0962964e+01 </wgt>
<wgt id='1901'> +7.0812333e+01 </wgt>
<wgt id='1902'> +7.0959393e+01 </wgt>
<wgt id='1903'> +7.0938091e+01 </wgt>
<wgt id='1904'> +7.0891753e+01 </wgt>
<wgt id='1905'> +7.0847699e+01 </wgt>
<wgt id='1906'> +7.0837452e+01 </wgt>
<wgt id='1907'> +7.0923948e+01 </wgt>
<wgt id='1908'> +7.0755180e+01 </wgt>
<wgt id='1909'> +7.0821928e+01 </wgt>
<wgt id='1910'> +7.0846822e+01 </wgt>
<wgt id='1911'> +7.0844052e+01 </wgt>
<wgt id='1912'> +7.0926360e+01 </wgt>
<wgt id='1913'> +7.0753101e+01 </wgt>
<wgt id='1914'> +7.0826797e+01 </wgt>
<wgt id='1915'> +7.0842303e+01 </wgt>
<wgt id='1916'> +7.0861601e+01 </wgt>
<wgt id='1917'> +7.0867958e+01 </wgt>
<wgt id='1918'> +7.0787295e+01 </wgt>
<wgt id='1919'> +7.0949514e+01 </wgt>
<wgt id='1920'> +7.0799958e+01 </wgt>
<wgt id='1921'> +7.0807065e+01 </wgt>
<wgt id='1922'> +7.0851890e+01 </wgt>
<wgt id='1923'> +7.0858743e+01 </wgt>
<wgt id='1924'> +7.0873616e+01 </wgt>
<wgt id='1925'> +7.0838071e+01 </wgt>
<wgt id='1926'> +7.0868427e+01 </wgt>
<wgt id='1927'> +7.0844678e+01 </wgt>
<wgt id='1928'> +7.0870076e+01 </wgt>
<wgt id='1929'> +7.0861868e+01 </wgt>
<wgt id='1930'> +7.0881471e+01 </wgt>
<wgt id='1931'> +7.0848172e+01 </wgt>
<wgt id='1932'> +7.0861095e+01 </wgt>
<wgt id='1933'> +7.0803311e+01 </wgt>
<wgt id='1934'> +7.0850623e+01 </wgt>
<wgt id='1935'> +7.0935944e+01 </wgt>
<wgt id='1936'> +7.0883038e+01 </wgt>
<wgt id='1937'> +7.0877931e+01 </wgt>
<wgt id='1938'> +7.0866226e+01 </wgt>
<wgt id='1939'> +7.0826717e+01 </wgt>
<wgt id='1940'> +7.0801747e+01 </wgt>
<wgt id='1941'> +7.0901603e+01 </wgt>
<wgt id='1942'> +7.0769326e+01 </wgt>
<wgt id='1943'> +7.0812824e+01 </wgt>
<wgt id='1944'> +7.0813313e+01 </wgt>
<wgt id='1945'> +7.0836076e+01 </wgt>
<wgt id='1946'> +7.0802310e+01 </wgt>
<wgt id='1947'> +7.0816232e+01 </wgt>
<wgt id='1948'> +7.0846444e+01 </wgt>
<wgt id='1949'> +7.0801271e+01 </wgt>
<wgt id='1950'> +7.0840682e+01 </wgt>
<wgt id='1951'> +7.0882034e+01 </wgt>
<wgt id='1952'> +7.0868342e+01 </wgt>
<wgt id='1953'> +7.0819163e+01 </wgt>
<wgt id='1954'> +7.0866781e+01 </wgt>
<wgt id='1955'> +7.0872923e+01 </wgt>
<wgt id='1956'> +7.0855964e+01 </wgt>
<wgt id='1957'> +7.0860732e+01 </wgt>
<wgt id='1958'> +7.0857473e+01 </wgt>
<wgt id='1959'> +7.0857606e+01 </wgt>
<wgt id='1960'> +7.0858970e+01 </wgt>
<wgt id='1961'> +7.0857030e+01 </wgt>
<wgt id='1962'> +7.0861560e+01 </wgt>
</rwgt>
</event>
<event npLO=" -1 " npNLO=" 1 ">
 7      1 +1.5146096e+02 1.53769900e+01 7.54677110e-03 1.21647470e-01
        1 -1    0    0  502    0 +0.0000000000e+00 +0.0000000000e+00 +2.4683880000e+01 2.4683880000e+01 0.0000000000e+00 0.0000e+00 9.0000e+00
       21 -1    0    0  501  502 +0.0000000000e+00 +0.0000000000e+00 -2.4006781000e+02 2.4006781000e+02 0.0000000000e+00 0.0000e+00 9.0000e+00
       23  2    1    2    0    0 -1.7684816000e+00 -1.5274956000e+01 -6.3880498000e+01 1.1246991000e+02 9.1281488000e+01 0.0000e+00 0.0000e+00
       15  1    3    3    0    0 +2.4486406000e+01 -2.4583070000e+01 -1.9292272000e+01 3.9739916000e+01 1.7770000000e+00 0.0000e+00 9.0000e+00
      -15  1    3    3    0    0 -1.7478578000e+01 +2.3873535000e+01 -4.6988288000e+01 5.5556307000e+01 1.7770000000e+00 0.0000e+00 9.0000e+00
       22  1    3    3    0    0 -8.7763104000e+00 -1.4565421000e+01 +2.4000618000e+00 1.7173683000e+01 0.0000000000e+00 0.0000e+00 9.0000e+00
        1  1    1    2  501    0 +1.7684816000e+00 +1.5274956000e+01 -1.5150343000e+02 1.5228178000e+02 0.0000000000e+00 0.0000e+00 9.0000e+00
#aMCatNLO 1  0  0  2  1 0.20625168E+02 0.00000000E+00 -9  7  0 0.00000000E+00 0.00000000E+00 0.00000000E+00 0.00000000E+00 0.00000000E+00
<rwgt>
<wgt id='1001'> +1.5146000e+02 </wgt>
<wgt id='1002'> +1.5146000e+02 </wgt>
<wgt id='1003'> +1.4213000e+02 </wgt>
<wgt id='1004'> +1.5297000e+02 </wgt>
<wgt id='1005'> +1.5781000e+02 </wgt>
<wgt id='1006'> +1.5268000e+02 </wgt>
<wgt id='1007'> +1.3555000e+02 </wgt>
<wgt id='1008'> +1.4852000e+02 </wgt>
<wgt id='1009'> +1.5220000e+02 </wgt>
<wgt id='1010'> +1.5449000e+02 </wgt>
<wgt id='1011'> +1.5316000e+02 </wgt>
<wgt id='1012'> +1.4246000e+02 </wgt>
<wgt id='1013'> +1.4059000e+02 </wgt>
<wgt id='1014'> +1.5380000e+02 </wgt>
<wgt id='1015'> +1.5438000e+02 </wgt>
<wgt id='1016'> +1.4765000e+02 </wgt>
<wgt id='1017'> +1.5344000e+02 </wgt>
<wgt id='1018'> +1.5174000e+02 </wgt>
<wgt id='1019'> +1.4861000e+02 </wgt>
<wgt id='1020'> +1.4843000e+02 </wgt>
<wgt id='1021'> +1.5528000e+02 </wgt>
<wgt id='1022'> +1.5817000e+02 </wgt>
<wgt id='1023'> +1.5612000e+02 </wgt>
<wgt id='1024'> +1.5000000e+02 </wgt>
<wgt id='1025'> +1.6011000e+02 </wgt>
<wgt id='1026'> +1.5227000e+02 </wgt>
<wgt id='1027'> +1.5396000e+02 </wgt>
<wgt id='1028'> +1.4908000e+02 </wgt>
<wgt id='1029'> +1.5203000e+02 </wgt>
<wgt id='1030'> +1.4918000e+02 </wgt>
<wgt id='1031'> +1.5255000e+02 </wgt>
<wgt id='1032'> +1.5714000e+02 </wgt>
<wgt id='1033'> +1.5518000e+02 </wgt>
<wgt id='1034'> +1.4166000e+02 </wgt>
<wgt id='1035'> +1.5186000e+02 </wgt>
<wgt id='1036'> +1.5037000e+02 </wgt>
<wgt id='1037'> +1.5803000e+02 </wgt>
<wgt id='1038'> +1.5350000e+02 </wgt>
<wgt id='1039'> +1.5434000e+02 </wgt>
<wgt id='1040'> +1.4728000e+02 </wgt>
<wgt id='1041'> +1.5131000e+02 </wgt>
<wgt id='1042'> +1.5336000e+02 </wgt>
<wgt id='1043'> +1.5568000e+02 </wgt>
<wgt id='1044'> +1.5326000e+02 </wgt>
<wgt id='1045'> +1.5182000e+02 </wgt>
<wgt id='1046'> +1.5086000e+02 </wgt>
<wgt id='1047'> +1.5063000e+02 </wgt>
<wgt id='1048'> +1.5427000e+02 </wgt>
<wgt id='1049'> +1.4955000e+02 </wgt>
<wgt id='1050'> +1.4931000e+02 </wgt>
<wgt id='1051'> +1.5178000e+02 </wgt>
<wgt id='1052'> +1.5334000e+02 </wgt>
<wgt id='1053'> +1.5206000e+02 </wgt>
<wgt id='1054'> +1.4780000e+02 </wgt>
<wgt id='1055'> +1.4576000e+02 </wgt>
<wgt id='1056'> +1.5236000e+02 </wgt>
<wgt id='1057'> +1.5002000e+02 </wgt>
<wgt id='1058'> +1.4876000e+02 </wgt>
<wgt id='1059'> +1.5878000e+02 </wgt>
<wgt id='1060'> +1.5014000e+02 </wgt>
<wgt id='1061'> +1.5671000e+02 </wgt>
<wgt id='1062'> +1.5347000e+02 </wgt>
<wgt id='1063'> +1.5232000e+02 </wgt>
<wgt id='1064'> +1.5336000e+02 </wgt>
<wgt id='1065'> +1.4876000e+02 </wgt>
<wgt id='1066'> +1.4917000e+02 </wgt>
<wgt id='1067'> +1.5340000e+02 </wgt>
<wgt id='1068'> +1.5215000e+02 </wgt>
<wgt id='1069'> +1.5662000e+02 </wgt>
<wgt id='1070'> +1.5145000e+02 </wgt>
<wgt id='1071'> +1.4687000e+02 </wgt>
<wgt id='1072'> +1.4900000e+02 </wgt>
<wgt id='1073'> +1.5109000e+02 </wgt>
<wgt id='1074'> +1.4648000e+02 </wgt>
<wgt id='1075'> +1.3645000e+02 </wgt>
<wgt id='1076'> +1.5009000e+02 </wgt>
<wgt id='1077'> +1.5404000e+02 </wgt>
<wgt id='1078'> +1.4444000e+02 </wgt>
<wgt id='1079'> +1.4855000e+02 </wgt>
<wgt id='1080'> +1.5638000e+02 </wgt>
<wgt id='1081'> +1.4791000e+02 </wgt>
<wgt id='1082'> +1.5351000e+02 </wgt>
<wgt id='1083'> +1.5334000e+02 </wgt>
<wgt id='1084'> +1.5138000e+02 </wgt>
<wgt id='1085'> +1.5482000e+02 </wgt>
<wgt id='1086'> +1.5298000e+02 </wgt>
<wgt id='1087'> +1.5041000e+02 </wgt>
<wgt id='1088'> +1.5090000e+02 </wgt>
<wgt id='1089'> +1.5027000e+02 </wgt>
<wgt id='1090'> +1.5362000e+02 </wgt>
<wgt id='1091'> +1.5434000e+02 </wgt>
<wgt id='1092'> +1.5149000e+02 </wgt>
<wgt id='1093'> +1.5453000e+02 </wgt>
<wgt id='1094'> +1.4933000e+02 </wgt>
<wgt id='1095'> +1.5230000e+02 </wgt>
<wgt id='1096'> +1.5200000e+02 </wgt>
<wgt id='1097'> +1.4988000e+02 </wgt>
<wgt id='1098'> +1.5201000e+02 </wgt>
<wgt id='1099'> +1.5482000e+02 </wgt>
<wgt id='1100'> +1.5531000e+02 </wgt>
<wgt id='1101'> +1.5677000e+02 </wgt>
<wgt id='1102'> +1.5536000e+02 </wgt>
<wgt id='1103'> +1.4994000e+02 </wgt>
<wgt id='1104'> +1.5321000e+02 </wgt>
<wgt id='1105'> +1.5146096e+02 </wgt>
<wgt id='1106'> +7.1409336e+01 </wgt>
<wgt id='1107'> +7.9225812e+01 </wgt>
<wgt id='1108'> +8.0347987e+01 </wgt>
<wgt id='1109'> +7.5688798e+01 </wgt>
<wgt id='1110'> +8.4190690e+01 </wgt>
<wgt id='1111'> +6.9771991e+01 </wgt>
<wgt id='1112'> +6.5856269e+01 </wgt>
<wgt id='1113'> +7.2874514e+01 </wgt>
<wgt id='1114'> +7.8978212e+01 </wgt>
<wgt id='1115'> +8.0129388e+01 </wgt>
<wgt id='1116'> +7.8850288e+01 </wgt>
<wgt id='1117'> +7.8213736e+01 </wgt>
<wgt id='1118'> +7.8783386e+01 </wgt>
<wgt id='1119'> +8.0083428e+01 </wgt>
<wgt id='1120'> +8.1775578e+01 </wgt>
<wgt id='1121'> +7.9381363e+01 </wgt>
<wgt id='1122'> +7.5568100e+01 </wgt>
<wgt id='1123'> +7.8823021e+01 </wgt>
<wgt id='1124'> +8.1147341e+01 </wgt>
<wgt id='1125'> +7.9973904e+01 </wgt>
<wgt id='1126'> +7.8369029e+01 </wgt>
<wgt id='1127'> +7.8546329e+01 </wgt>
<wgt id='1128'> +7.6930544e+01 </wgt>
<wgt id='1129'> +7.9801071e+01 </wgt>
<wgt id='1130'> +8.0588131e+01 </wgt>
<wgt id='1131'> +8.1775075e+01 </wgt>
<wgt id='1132'> +7.9357492e+01 </wgt>
<wgt id='1133'> +7.8185704e+01 </wgt>
<wgt id='1134'> +7.7339743e+01 </wgt>
<wgt id='1135'> +7.6626209e+01 </wgt>
<wgt id='1136'> +7.8278232e+01 </wgt>
<wgt id='1137'> +7.9065752e+01 </wgt>
<wgt id='1138'> +7.7172118e+01 </wgt>
<wgt id='1139'> +7.6806123e+01 </wgt>
<wgt id='1140'> +7.7200215e+01 </wgt>
<wgt id='1141'> +8.1217689e+01 </wgt>
<wgt id='1142'> +7.9481479e+01 </wgt>
<wgt id='1143'> +7.9656050e+01 </wgt>
<wgt id='1144'> +8.2031066e+01 </wgt>
<wgt id='1145'> +7.9475601e+01 </wgt>
<wgt id='1146'> +8.0023450e+01 </wgt>
<wgt id='1147'> +7.9563990e+01 </wgt>
<wgt id='1148'> +7.6608840e+01 </wgt>
<wgt id='1149'> +8.0568893e+01 </wgt>
<wgt id='1150'> +7.7825710e+01 </wgt>
<wgt id='1151'> +7.9631267e+01 </wgt>
<wgt id='1152'> +7.8778188e+01 </wgt>
<wgt id='1153'> +7.8911966e+01 </wgt>
<wgt id='1154'> +7.7695600e+01 </wgt>
<wgt id='1155'> +7.8993784e+01 </wgt>
<wgt id='1156'> +7.8928519e+01 </wgt>
<wgt id='1157'> +8.0520214e+01 </wgt>
<wgt id='1158'> +7.9743237e+01 </wgt>
<wgt id='1159'> +7.8395486e+01 </wgt>
<wgt id='1160'> +7.9821905e+01 </wgt>
<wgt id='1161'> +7.9105272e+01 </wgt>
<wgt id='1162'> +7.5574954e+01 </wgt>
<wgt id='1163'> +8.1704627e+01 </wgt>
<wgt id='1164'> +8.2594178e+01 </wgt>
<wgt id='1165'> +7.8227614e+01 </wgt>
<wgt id='1166'> +7.7745725e+01 </wgt>
<wgt id='1167'> +7.9244758e+01 </wgt>
<wgt id='1168'> +8.0566659e+01 </wgt>
<wgt id='1169'> +7.5633138e+01 </wgt>
<wgt id='1170'> +7.9362284e+01 </wgt>
<wgt id='1171'> +8.0138909e+01 </wgt>
<wgt id='1172'> +7.7350194e+01 </wgt>
<wgt id='1173'> +7.9697273e+01 </wgt>
<wgt id='1174'> +7.8413319e+01 </wgt>
<wgt id='1175'> +8.0502292e+01 </wgt>
<wgt id='1176'> +7.8932440e+01 </wgt>
<wgt id='1177'> +7.8595951e+01 </wgt>
<wgt id='1178'> +7.6496610e+01 </wgt>
<wgt id='1179'> +7.9280882e+01 </wgt>
<wgt id='1180'> +7.8489847e+01 </wgt>
<wgt id='1181'> +7.8668456e+01 </wgt>
<wgt id='1182'> +8.0938250e+01 </wgt>
<wgt id='1183'> +7.8760782e+01 </wgt>
<wgt id='1184'> +7.7117063e+01 </wgt>
<wgt id='1185'> +7.9812884e+01 </wgt>
<wgt id='1186'> +8.1460486e+01 </wgt>
<wgt id='1187'> +7.8122045e+01 </wgt>
<wgt id='1188'> +7.8959137e+01 </wgt>
<wgt id='1189'> +7.9696313e+01 </wgt>
<wgt id='1190'> +7.8047063e+01 </wgt>
<wgt id='1191'> +7.7072242e+01 </wgt>
<wgt id='1192'> +7.9840027e+01 </wgt>
<wgt id='1193'> +7.8356970e+01 </wgt>
<wgt id='1194'> +8.0099736e+01 </wgt>
<wgt id='1195'> +7.7425015e+01 </wgt>
<wgt id='1196'> +8.0588131e+01 </wgt>
<wgt id='1197'> +7.9029750e+01 </wgt>
<wgt id='1198'> +7.8245848e+01 </wgt>
<wgt id='1199'> +8.0470816e+01 </wgt>
<wgt id='1200'> +8.0263146e+01 </wgt>
<wgt id='1201'> +8.0216002e+01 </wgt>
<wgt id='1202'> +8.2235828e+01 </wgt>
<wgt id='1203'> +7.7093994e+01 </wgt>
<wgt id='1204'> +7.8277728e+01 </wgt>
<wgt id='1205'> +7.7489408e+01 </wgt>
<wgt id='1206'> +7.7962423e+01 </wgt>
<wgt id='1207'> +7.9238221e+01 </wgt>
<wgt id='1208'> +8.0848485e+01 </wgt>
<wgt id='1209'> +7.7680600e+01 </wgt>
<wgt id='1210'> +7.7428843e+01 </wgt>
<wgt id='1211'> +7.8055724e+01 </wgt>
<wgt id='1212'> +7.8901378e+01 </wgt>
<wgt id='1213'> +7.7132668e+01 </wgt>
<wgt id='1214'> +7.7992534e+01 </wgt>
<wgt id='1215'> +7.7375514e+01 </wgt>
<wgt id='1216'> +7.8457663e+01 </wgt>
<wgt id='1217'> +7.8479998e+01 </wgt>
<wgt id='1218'> +7.8548387e+01 </wgt>
<wgt id='1219'> +7.8448845e+01 </wgt>
<wgt id='1220'> +7.8914909e+01 </wgt>
<wgt id='1221'> +7.8673029e+01 </wgt>
<wgt id='1222'> +7.8219903e+01 </wgt>
<wgt id='1223'> +7.8779609e+01 </wgt>
<wgt id='1224'> +7.8547722e+01 </wgt>
<wgt id='1225'> +7.8764421e+01 </wgt>
<wgt id='1226'> +7.7984553e+01 </wgt>
<wgt id='1227'> +7.8288993e+01 </wgt>
<wgt id='1228'> +7.8764359e+01 </wgt>
<wgt id='1229'> +7.8619861e+01 </wgt>
<wgt id='1230'> +7.8603938e+01 </wgt>
<wgt id='1231'> +7.8196465e+01 </wgt>
<wgt id='1232'> +7.8960134e+01 </wgt>
<wgt id='1233'> +7.8401102e+01 </wgt>
<wgt id='1234'> +7.8796642e+01 </wgt>
<wgt id='1235'> +7.8323168e+01 </wgt>
<wgt id='1236'> +7.8169351e+01 </wgt>
<wgt id='1237'> +7.8481609e+01 </wgt>
<wgt id='1238'> +7.8369164e+01 </wgt>
<wgt id='1239'> +7.7897057e+01 </wgt>
<wgt id='1240'> +7.8667995e+01 </wgt>
<wgt id='1241'> +7.8419695e+01 </wgt>
<wgt id='1242'> +7.8726531e+01 </wgt>
<wgt id='1243'> +7.8357974e+01 </wgt>
<wgt id='1244'> +7.8149846e+01 </wgt>
<wgt id='1245'> +7.8696024e+01 </wgt>
<wgt id='1246'> +7.8734043e+01 </wgt>
<wgt id='1247'> +7.8423008e+01 </wgt>
<wgt id='1248'> +7.8613476e+01 </wgt>
<wgt id='1249'> +7.8345068e+01 </wgt>
<wgt id='1250'> +7.8636100e+01 </wgt>
<wgt id='1251'> +7.8452055e+01 </wgt>
<wgt id='1252'> +7.8349968e+01 </wgt>
<wgt id='1253'> +7.8422676e+01 </wgt>
<wgt id='1254'> +7.8503471e+01 </wgt>
<wgt id='1255'> +7.8313440e+01 </wgt>
<wgt id='1256'> +7.8380350e+01 </wgt>
<wgt id='1257'> +7.8456541e+01 </wgt>
<wgt id='1258'> +7.8343219e+01 </wgt>
<wgt id='1259'> +7.8563185e+01 </wgt>
<wgt id='1260'> +7.8508647e+01 </wgt>
<wgt id='1261'> +7.8622459e+01 </wgt>
<wgt id='1262'> +7.8413332e+01 </wgt>
<wgt id='1263'> +7.8422040e+01 </wgt>
<wgt id='1264'> +7.8456279e+01 </wgt>
<wgt id='1265'> +7.8271057e+01 </wgt>
<wgt id='1266'> +7.8512577e+01 </wgt>
<wgt id='1267'> +7.8555950e+01 </wgt>
<wgt id='1268'> +7.8376289e+01 </wgt>
<wgt id='1269'> +7.8418003e+01 </wgt>
<wgt id='1270'> +7.8365368e+01 </wgt>
<wgt id='1271'> +7.8442936e+01 </wgt>
<wgt id='1272'> +7.8484006e+01 </wgt>
<wgt id='1273'> +7.8481463e+01 </wgt>
<wgt id='1274'> +7.8450489e+01 </wgt>
<wgt id='1275'> +7.8421850e+01 </wgt>
<wgt id='1276'> +7.8518636e+01 </wgt>
<wgt id='1277'> +7.8513697e+01 </wgt>
<wgt id='1278'> +7.8484172e+01 </wgt>
<wgt id='1279'> +7.8417721e+01 </wgt>
<wgt id='1280'> +7.8460633e+01 </wgt>
<wgt id='1281'> +7.8551969e+01 </wgt>
<wgt id='1282'> +7.8389959e+01 </wgt>
<wgt id='1283'> +7.8443654e+01 </wgt>
<wgt id='1284'> +7.8433943e+01 </wgt>
<wgt id='1285'> +7.8394359e+01 </wgt>
<wgt id='1286'> +7.8470761e+01 </wgt>
<wgt id='1287'> +7.8438554e+01 </wgt>
<wgt id='1288'> +7.8370630e+01 </wgt>
<wgt id='1289'> +7.8470559e+01 </wgt>
<wgt id='1290'> +7.8483955e+01 </wgt>
<wgt id='1291'> +7.8540230e+01 </wgt>
<wgt id='1292'> +7.8465167e+01 </wgt>
<wgt id='1293'> +7.8451877e+01 </wgt>
<wgt id='1294'> +7.8469711e+01 </wgt>
<wgt id='1295'> +7.8484855e+01 </wgt>
<wgt id='1296'> +7.8411458e+01 </wgt>
<wgt id='1297'> +7.8461798e+01 </wgt>
<wgt id='1298'> +7.8441116e+01 </wgt>
<wgt id='1299'> +7.8470491e+01 </wgt>
<wgt id='1300'> +7.8416944e+01 </wgt>
<wgt id='1301'> +7.8472368e+01 </wgt>
<wgt id='1302'> +7.8463611e+01 </wgt>
<wgt id='1303'> +7.8485868e+01 </wgt>
<wgt id='1304'> +7.8444990e+01 </wgt>
<wgt id='1305'> +7.8449027e+01 </wgt>
<wgt id='1306'> +7.8463416e+01 </wgt>
<wgt id='1307'> +7.8462825e+01 </wgt>
<wgt id='1308'> +7.8436003e+01 </wgt>
<wgt id='1309'> +7.8443013e+01 </wgt>
<wgt id='1310'> +7.8437071e+01 </wgt>
<wgt id='1311'> +7.8458433e+01 </wgt>
<wgt id='1312'> +7.8435310e+01 </wgt>
<wgt id='1313'> +7.8461966e+01 </wgt>
<wgt id='1314'> +7.8457183e+01 </wgt>
<wgt id='1315'> +7.8442366e+01 </wgt>
<wgt id='1316'> +7.8466979e+01 </wgt>
<wgt id='1317'> +7.6620291e+01 </wgt>
<wgt id='1318'> +8.0430338e+01 </wgt>
<wgt id='1319'> +8.0913920e+01 </wgt>
<wgt id='1320'> +7.3153035e+01 </wgt>
<wgt id='1321'> +7.3778837e+01 </wgt>
<wgt id='1322'> +7.2187625e+01 </wgt>
<wgt id='1323'> +7.3927920e+01 </wgt>
<wgt id='1324'> +7.2827348e+01 </wgt>
<wgt id='1325'> +7.4219661e+01 </wgt>
<wgt id='1326'> +7.2620507e+01 </wgt>
<wgt id='1327'> +7.4879985e+01 </wgt>
<wgt id='1328'> +7.2353352e+01 </wgt>
<wgt id='1329'> +7.2576045e+01 </wgt>
<wgt id='1330'> +7.3079082e+01 </wgt>
<wgt id='1331'> +7.3476646e+01 </wgt>
<wgt id='1332'> +7.3085532e+01 </wgt>
<wgt id='1333'> +7.1303839e+01 </wgt>
<wgt id='1334'> +7.3913495e+01 </wgt>
<wgt id='1335'> +7.4766282e+01 </wgt>
<wgt id='1336'> +7.1555235e+01 </wgt>
<wgt id='1337'> +7.3654356e+01 </wgt>
<wgt id='1338'> +7.2627394e+01 </wgt>
<wgt id='1339'> +7.3847013e+01 </wgt>
<wgt id='1340'> +7.2367919e+01 </wgt>
<wgt id='1341'> +7.3433831e+01 </wgt>
<wgt id='1342'> +7.2557106e+01 </wgt>
<wgt id='1343'> +7.3964581e+01 </wgt>
<wgt id='1344'> +7.2235040e+01 </wgt>
<wgt id='1345'> +7.4165743e+01 </wgt>
<wgt id='1346'> +7.2325497e+01 </wgt>
<wgt id='1347'> +7.2648665e+01 </wgt>
<wgt id='1348'> +7.3760908e+01 </wgt>
<wgt id='1349'> +7.2491467e+01 </wgt>
<wgt id='1350'> +7.3377777e+01 </wgt>
<wgt id='1351'> +7.3007088e+01 </wgt>
<wgt id='1352'> +7.3331731e+01 </wgt>
<wgt id='1353'> +7.2489422e+01 </wgt>
<wgt id='1354'> +7.4587742e+01 </wgt>
<wgt id='1355'> +7.4178346e+01 </wgt>
<wgt id='1356'> +7.2196503e+01 </wgt>
<wgt id='1357'> +7.3413086e+01 </wgt>
<wgt id='1358'> +7.2506618e+01 </wgt>
<wgt id='1359'> +7.2875161e+01 </wgt>
<wgt id='1360'> +7.3090632e+01 </wgt>
<wgt id='1361'> +7.2861969e+01 </wgt>
<wgt id='1362'> +7.3543026e+01 </wgt>
<wgt id='1363'> +7.3770538e+01 </wgt>
<wgt id='1364'> +7.2780722e+01 </wgt>
<wgt id='1365'> +7.2311439e+01 </wgt>
<wgt id='1366'> +7.3130016e+01 </wgt>
<wgt id='1367'> +7.1898966e+01 </wgt>
<wgt id='1368'> +7.3170670e+01 </wgt>
<wgt id='1369'> +7.2290522e+01 </wgt>
<wgt id='1370'> +7.2927161e+01 </wgt>
<wgt id='1371'> +7.2705678e+01 </wgt>
<wgt id='1372'> +7.2511936e+01 </wgt>
<wgt id='1373'> +7.1668068e+01 </wgt>
<wgt id='1374'> +7.3309604e+01 </wgt>
<wgt id='1375'> +7.2235956e+01 </wgt>
<wgt id='1376'> +7.4203352e+01 </wgt>
<wgt id='1377'> +7.0905901e+01 </wgt>
<wgt id='1378'> +7.5375739e+01 </wgt>
<wgt id='1379'> +7.5303977e+01 </wgt>
<wgt id='1380'> +7.2831445e+01 </wgt>
<wgt id='1381'> +7.7783967e+01 </wgt>
<wgt id='1382'> +6.4708236e+01 </wgt>
<wgt id='1383'> +7.4635448e+01 </wgt>
<wgt id='1384'> +7.6699289e+01 </wgt>
<wgt id='1385'> +8.1851600e+01 </wgt>
<wgt id='1386'> +8.1891234e+01 </wgt>
<wgt id='1387'> +8.1807711e+01 </wgt>
<wgt id='1388'> +8.1384631e+01 </wgt>
<wgt id='1389'> +8.2657440e+01 </wgt>
<wgt id='1390'> +8.1950688e+01 </wgt>
<wgt id='1391'> +8.1735414e+01 </wgt>
<wgt id='1392'> +8.1488298e+01 </wgt>
<wgt id='1393'> +8.2108895e+01 </wgt>
<wgt id='1394'> +8.1764728e+01 </wgt>
<wgt id='1395'> +8.1960556e+01 </wgt>
<wgt id='1396'> +8.1364679e+01 </wgt>
<wgt id='1397'> +8.2099302e+01 </wgt>
<wgt id='1398'> +8.1952749e+01 </wgt>
<wgt id='1399'> +8.1766325e+01 </wgt>
<wgt id='1400'> +8.1596123e+01 </wgt>
<wgt id='1401'> +8.2038801e+01 </wgt>
<wgt id='1402'> +8.1850129e+01 </wgt>
<wgt id='1403'> +8.1850072e+01 </wgt>
<wgt id='1404'> +8.1831290e+01 </wgt>
<wgt id='1405'> +8.1868390e+01 </wgt>
<wgt id='1406'> +8.1474510e+01 </wgt>
<wgt id='1407'> +8.2519211e+01 </wgt>
<wgt id='1408'> +8.1546455e+01 </wgt>
<wgt id='1409'> +8.2467789e+01 </wgt>
<wgt id='1410'> +8.1693008e+01 </wgt>
<wgt id='1411'> +8.2097461e+01 </wgt>
<wgt id='1412'> +8.2312329e+01 </wgt>
<wgt id='1413'> +8.1200448e+01 </wgt>
<wgt id='1414'> +8.2110660e+01 </wgt>
<wgt id='1415'> +8.1672528e+01 </wgt>
<wgt id='1416'> +8.1639544e+01 </wgt>
<wgt id='1417'> +8.1985383e+01 </wgt>
<wgt id='1418'> +8.1882844e+01 </wgt>
<wgt id='1419'> +8.1702324e+01 </wgt>
<wgt id='1420'> +8.1142885e+01 </wgt>
<wgt id='1421'> +8.2114359e+01 </wgt>
<wgt id='1422'> +8.2147056e+01 </wgt>
<wgt id='1423'> +8.1527711e+01 </wgt>
<wgt id='1424'> +8.2241252e+01 </wgt>
<wgt id='1425'> +8.1086904e+01 </wgt>
<wgt id='1426'> +8.2425142e+01 </wgt>
<wgt id='1427'> +8.2027399e+01 </wgt>
<wgt id='1428'> +8.1676340e+01 </wgt>
<wgt id='1429'> +8.1700670e+01 </wgt>
<wgt id='1430'> +8.2263524e+01 </wgt>
<wgt id='1431'> +8.2325864e+01 </wgt>
<wgt id='1432'> +8.2234837e+01 </wgt>
<wgt id='1433'> +8.2503827e+01 </wgt>
<wgt id='1434'> +8.2018841e+01 </wgt>
<wgt id='1435'> +8.1915901e+01 </wgt>
<wgt id='1436'> +7.2445120e+01 </wgt>
<wgt id='1437'> +7.2423529e+01 </wgt>
<wgt id='1438'> +7.2514375e+01 </wgt>
<wgt id='1439'> +7.2445887e+01 </wgt>
<wgt id='1440'> +7.2421224e+01 </wgt>
<wgt id='1441'> +7.2760668e+01 </wgt>
<wgt id='1442'> +7.2251617e+01 </wgt>
<wgt id='1443'> +7.2329299e+01 </wgt>
<wgt id='1444'> +7.2133618e+01 </wgt>
<wgt id='1445'> +7.2025055e+01 </wgt>
<wgt id='1446'> +7.2664004e+01 </wgt>
<wgt id='1447'> +7.2368449e+01 </wgt>
<wgt id='1448'> +7.2206166e+01 </wgt>
<wgt id='1449'> +7.2262266e+01 </wgt>
<wgt id='1450'> +7.2449380e+01 </wgt>
<wgt id='1451'> +7.2434882e+01 </wgt>
<wgt id='1452'> +7.2308237e+01 </wgt>
<wgt id='1453'> +7.2775921e+01 </wgt>
<wgt id='1454'> +7.2665851e+01 </wgt>
<wgt id='1455'> +7.2536656e+01 </wgt>
<wgt id='1456'> +7.2529173e+01 </wgt>
<wgt id='1457'> +7.2861875e+01 </wgt>
<wgt id='1458'> +7.2616156e+01 </wgt>
<wgt id='1459'> +7.2734720e+01 </wgt>
<wgt id='1460'> +7.2460565e+01 </wgt>
<wgt id='1461'> +7.2395855e+01 </wgt>
<wgt id='1462'> +7.2031582e+01 </wgt>
<wgt id='1463'> +7.2594159e+01 </wgt>
<wgt id='1464'> +7.2268217e+01 </wgt>
<wgt id='1465'> +7.3281040e+01 </wgt>
<wgt id='1466'> +7.4461521e+01 </wgt>
<wgt id='1467'> +7.4309850e+01 </wgt>
<wgt id='1468'> +7.4851355e+01 </wgt>
<wgt id='1469'> +7.5181169e+01 </wgt>
<wgt id='1470'> +7.4132668e+01 </wgt>
<wgt id='1471'> +7.4188622e+01 </wgt>
<wgt id='1472'> +7.4369681e+01 </wgt>
<wgt id='1473'> +7.4159754e+01 </wgt>
<wgt id='1474'> +7.4153360e+01 </wgt>
<wgt id='1475'> +7.4689918e+01 </wgt>
<wgt id='1476'> +7.5627564e+01 </wgt>
<wgt id='1477'> +7.3800541e+01 </wgt>
<wgt id='1478'> +7.3791791e+01 </wgt>
<wgt id='1479'> +7.4081768e+01 </wgt>
<wgt id='1480'> +7.3633997e+01 </wgt>
<wgt id='1481'> +7.4476999e+01 </wgt>
<wgt id='1482'> +7.4285495e+01 </wgt>
<wgt id='1483'> +7.4343477e+01 </wgt>
<wgt id='1484'> +7.4799368e+01 </wgt>
<wgt id='1485'> +7.4220512e+01 </wgt>
<wgt id='1486'> +7.4833533e+01 </wgt>
<wgt id='1487'> +7.4428729e+01 </wgt>
<wgt id='1488'> +7.4840012e+01 </wgt>
<wgt id='1489'> +7.4255333e+01 </wgt>
<wgt id='1490'> +7.4304544e+01 </wgt>
<wgt id='1491'> +7.4601433e+01 </wgt>
<wgt id='1492'> +7.4512520e+01 </wgt>
<wgt id='1493'> +7.4388447e+01 </wgt>
<wgt id='1494'> +7.3903966e+01 </wgt>
<wgt id='1495'> +7.4443940e+01 </wgt>
<wgt id='1496'> +7.4412542e+01 </wgt>
<wgt id='1497'> +7.4457832e+01 </wgt>
<wgt id='1498'> +7.4578246e+01 </wgt>
<wgt id='1499'> +7.4262531e+01 </wgt>
<wgt id='1500'> +7.4521454e+01 </wgt>
<wgt id='1501'> +7.4582708e+01 </wgt>
<wgt id='1502'> +7.4457751e+01 </wgt>
<wgt id='1503'> +7.4533181e+01 </wgt>
<wgt id='1504'> +7.4495881e+01 </wgt>
<wgt id='1505'> +7.4547876e+01 </wgt>
<wgt id='1506'> +7.4413547e+01 </wgt>
<wgt id='1507'> +7.4511166e+01 </wgt>
<wgt id='1508'> +7.4511857e+01 </wgt>
<wgt id='1509'> +7.4398899e+01 </wgt>
<wgt id='1510'> +7.4461568e+01 </wgt>
<wgt id='1511'> +7.4558268e+01 </wgt>
<wgt id='1512'> +7.4456148e+01 </wgt>
<wgt id='1513'> +7.4384598e+01 </wgt>
<wgt id='1514'> +7.4405930e+01 </wgt>
<wgt id='1515'> +7.4442327e+01 </wgt>
<wgt id='1516'> +7.4418008e+01 </wgt>
<wgt id='1517'> +7.4403460e+01 </wgt>
<wgt id='1518'> +7.4433302e+01 </wgt>
<wgt id='1519'> +7.4413559e+01 </wgt>
<wgt id='1520'> +7.4466987e+01 </wgt>
<wgt id='1521'> +7.4432998e+01 </wgt>
<wgt id='1522'> +7.4456633e+01 </wgt>
<wgt id='1523'> +7.4456145e+01 </wgt>
<wgt id='1524'> +7.4501122e+01 </wgt>
<wgt id='1525'> +7.4405948e+01 </wgt>
<wgt id='1526'> +7.4373578e+01 </wgt>
<wgt id='1527'> +7.4439637e+01 </wgt>
<wgt id='1528'> +7.4428961e+01 </wgt>
<wgt id='1529'> +7.4478595e+01 </wgt>
<wgt id='1530'> +7.4413254e+01 </wgt>
<wgt id='1531'> +7.4450424e+01 </wgt>
<wgt id='1532'> +7.4477745e+01 </wgt>
<wgt id='1533'> +7.4443606e+01 </wgt>
<wgt id='1534'> +7.4467026e+01 </wgt>
<wgt id='1535'> +7.4471690e+01 </wgt>
<wgt id='1536'> +7.4476043e+01 </wgt>
<wgt id='1537'> +7.4404142e+01 </wgt>
<wgt id='1538'> +7.4411041e+01 </wgt>
<wgt id='1539'> +7.4440304e+01 </wgt>
<wgt id='1540'> +7.4456235e+01 </wgt>
<wgt id='1541'> +7.4434598e+01 </wgt>
<wgt id='1542'> +7.4456790e+01 </wgt>
<wgt id='1543'> +7.4451986e+01 </wgt>
<wgt id='1544'> +7.4466542e+01 </wgt>
<wgt id='1545'> +7.4476005e+01 </wgt>
<wgt id='1546'> +7.4455112e+01 </wgt>
<wgt id='1547'> +7.4471967e+01 </wgt>
<wgt id='1548'> +7.4436313e+01 </wgt>
<wgt id='1549'> +7.4460723e+01 </wgt>
<wgt id='1550'> +7.4510974e+01 </wgt>
<wgt id='1551'> +7.4458681e+01 </wgt>
<wgt id='1552'> +7.4471183e+01 </wgt>
<wgt id='1553'> +7.4449175e+01 </wgt>
<wgt id='1554'> +7.4468536e+01 </wgt>
<wgt id='1555'> +7.4451572e+01 </wgt>
<wgt id='1556'> +7.4462986e+01 </wgt>
<wgt id='1557'> +7.4433461e+01 </wgt>
<wgt id='1558'> +7.4456335e+01 </wgt>
<wgt id='1559'> +7.4434930e+01 </wgt>
<wgt id='1560'> +7.4466857e+01 </wgt>
<wgt id='1561'> +7.4445726e+01 </wgt>
<wgt id='1562'> +7.4461733e+01 </wgt>
<wgt id='1563'> +7.4474554e+01 </wgt>
<wgt id='1564'> +7.4478043e+01 </wgt>
<wgt id='1565'> +7.4471781e+01 </wgt>
<wgt id='1566'> +7.4449615e+01 </wgt>
<wgt id='1567'> +7.3011144e+01 </wgt>
<wgt id='1568'> +7.5868471e+01 </wgt>
<wgt id='1569'> +7.6501390e+01 </wgt>
<wgt id='1570'> +7.6526297e+01 </wgt>
<wgt id='1571'> +7.6777492e+01 </wgt>
<wgt id='1572'> +7.6073643e+01 </wgt>
<wgt id='1573'> +7.6634959e+01 </wgt>
<wgt id='1574'> +7.7201573e+01 </wgt>
<wgt id='1575'> +7.6386911e+01 </wgt>
<wgt id='1576'> +7.6219672e+01 </wgt>
<wgt id='1577'> +7.6367079e+01 </wgt>
<wgt id='1578'> +7.6477784e+01 </wgt>
<wgt id='1579'> +7.6013236e+01 </wgt>
<wgt id='1580'> +7.7672488e+01 </wgt>
<wgt id='1581'> +7.6669064e+01 </wgt>
<wgt id='1582'> +7.5912508e+01 </wgt>
<wgt id='1583'> +7.6035899e+01 </wgt>
<wgt id='1584'> +7.7507995e+01 </wgt>
<wgt id='1585'> +7.7020599e+01 </wgt>
<wgt id='1586'> +7.6276598e+01 </wgt>
<wgt id='1587'> +7.6415551e+01 </wgt>
<wgt id='1588'> +7.6111682e+01 </wgt>
<wgt id='1589'> +7.6724688e+01 </wgt>
<wgt id='1590'> +7.6517430e+01 </wgt>
<wgt id='1591'> +7.6155817e+01 </wgt>
<wgt id='1592'> +7.6462434e+01 </wgt>
<wgt id='1593'> +7.5957390e+01 </wgt>
<wgt id='1594'> +7.6469617e+01 </wgt>
<wgt id='1595'> +7.6472786e+01 </wgt>
<wgt id='1596'> +7.6290118e+01 </wgt>
<wgt id='1597'> +7.6738268e+01 </wgt>
<wgt id='1598'> +7.6598284e+01 </wgt>
<wgt id='1599'> +7.6404283e+01 </wgt>
<wgt id='1600'> +7.6451466e+01 </wgt>
<wgt id='1601'> +7.6359445e+01 </wgt>
<wgt id='1602'> +7.6717113e+01 </wgt>
<wgt id='1603'> +7.6452290e+01 </wgt>
<wgt id='1604'> +7.6835368e+01 </wgt>
<wgt id='1605'> +7.6528958e+01 </wgt>
<wgt id='1606'> +7.6572219e+01 </wgt>
<wgt id='1607'> +7.6577232e+01 </wgt>
<wgt id='1608'> +7.6554771e+01 </wgt>
<wgt id='1609'> +7.6488710e+01 </wgt>
<wgt id='1610'> +7.6555187e+01 </wgt>
<wgt id='1611'> +7.6441100e+01 </wgt>
<wgt id='1612'> +7.6354290e+01 </wgt>
<wgt id='1613'> +7.6426326e+01 </wgt>
<wgt id='1614'> +7.6568153e+01 </wgt>
<wgt id='1615'> +7.6496732e+01 </wgt>
<wgt id='1616'> +7.6442683e+01 </wgt>
<wgt id='1617'> +7.6535250e+01 </wgt>
<wgt id='1618'> +7.6486658e+01 </wgt>
<wgt id='1619'> +7.6576260e+01 </wgt>
<wgt id='1620'> +7.6551360e+01 </wgt>
<wgt id='1621'> +7.6529994e+01 </wgt>
<wgt id='1622'> +7.6517487e+01 </wgt>
<wgt id='1623'> +7.6484172e+01 </wgt>
<wgt id='1624'> +7.6483078e+01 </wgt>
<wgt id='1625'> +7.6502711e+01 </wgt>
<wgt id='1626'> +7.6484993e+01 </wgt>
<wgt id='1627'> +7.6384656e+01 </wgt>
<wgt id='1628'> +7.6487640e+01 </wgt>
<wgt id='1629'> +7.6449128e+01 </wgt>
<wgt id='1630'> +7.6522508e+01 </wgt>
<wgt id='1631'> +7.6499380e+01 </wgt>
<wgt id='1632'> +7.6531295e+01 </wgt>
<wgt id='1633'> +7.6467847e+01 </wgt>
<wgt id='1634'> +7.6485303e+01 </wgt>
<wgt id='1635'> +7.6551630e+01 </wgt>
<wgt id='1636'> +7.6526781e+01 </wgt>
<wgt id='1637'> +7.6515227e+01 </wgt>
<wgt id='1638'> +7.6569052e+01 </wgt>
<wgt id='1639'> +7.6512579e+01 </wgt>
<wgt id='1640'> +7.6523024e+01 </wgt>
<wgt id='1641'> +7.6543052e+01 </wgt>
<wgt id='1642'> +7.6480539e+01 </wgt>
<wgt id='1643'> +7.6534617e+01 </wgt>
<wgt id='1644'> +7.6489018e+01 </wgt>
<wgt id='1645'> +7.6493711e+01 </wgt>
<wgt id='1646'> +7.6510762e+01 </wgt>
<wgt id='1647'> +7.6513555e+01 </wgt>
<wgt id='1648'> +7.6489600e+01 </wgt>
<wgt id='1649'> +7.6525957e+01 </wgt>
<wgt id='1650'> +7.6488480e+01 </wgt>
<wgt id='1651'> +7.6518346e+01 </wgt>
<wgt id='1652'> +7.6477126e+01 </wgt>
<wgt id='1653'> +7.6469546e+01 </wgt>
<wgt id='1654'> +7.6486905e+01 </wgt>
<wgt id='1655'> +7.6499548e+01 </wgt>
<wgt id='1656'> +7.6463876e+01 </wgt>
<wgt id='1657'> +7.6488527e+01 </wgt>
<wgt id='1658'> +7.6472567e+01 </wgt>
<wgt id='1659'> +7.6533264e+01 </wgt>
<wgt id='1660'> +7.6488561e+01 </wgt>
<wgt id='1661'> +7.6501106e+01 </wgt>
<wgt id='1662'> +7.6506106e+01 </wgt>
<wgt id='1663'> +7.6507641e+01 </wgt>
<wgt id='1664'> +7.6502084e+01 </wgt>
<wgt id='1665'> +7.6500746e+01 </wgt>
<wgt id='1666'> +7.6504615e+01 </wgt>
<wgt id='1667'> +7.6490671e+01 </wgt>
<wgt id='1668'> +7.6501173e+01 </wgt>
<wgt id='1669'> +7.6516645e+01 </wgt>
<wgt id='1670'> +7.4913222e+01 </wgt>
<wgt id='1671'> +7.7911433e+01 </wgt>
<wgt id='1672'> +7.4504796e+01 </wgt>
<wgt id='1673'> +7.5121230e+01 </wgt>
<wgt id='1674'> +7.3849005e+01 </wgt>
<wgt id='1675'> +7.4499932e+01 </wgt>
<wgt id='1676'> +7.4013366e+01 </wgt>
<wgt id='1677'> +7.5737140e+01 </wgt>
<wgt id='1678'> +7.4571678e+01 </wgt>
<wgt id='1679'> +7.4561155e+01 </wgt>
<wgt id='1680'> +7.4702840e+01 </wgt>
<wgt id='1681'> +7.4675361e+01 </wgt>
<wgt id='1682'> +7.4691405e+01 </wgt>
<wgt id='1683'> +7.3943581e+01 </wgt>
<wgt id='1684'> +7.4398159e+01 </wgt>
<wgt id='1685'> +7.4588961e+01 </wgt>
<wgt id='1686'> +7.3201349e+01 </wgt>
<wgt id='1687'> +7.4506554e+01 </wgt>
<wgt id='1688'> +7.4413341e+01 </wgt>
<wgt id='1689'> +7.4644233e+01 </wgt>
<wgt id='1690'> +7.4553698e+01 </wgt>
<wgt id='1691'> +7.4468554e+01 </wgt>
<wgt id='1692'> +7.4455789e+01 </wgt>
<wgt id='1693'> +7.4467841e+01 </wgt>
<wgt id='1694'> +7.4457441e+01 </wgt>
<wgt id='1695'> +7.4512686e+01 </wgt>
<wgt id='1696'> +7.4464698e+01 </wgt>
<wgt id='1697'> +7.4456555e+01 </wgt>
<wgt id='1698'> +7.4620004e+01 </wgt>
<wgt id='1699'> +7.4608449e+01 </wgt>
<wgt id='1700'> +7.4933818e+01 </wgt>
<wgt id='1701'> +7.4458549e+01 </wgt>
<wgt id='1702'> +7.4499758e+01 </wgt>
<wgt id='1703'> +7.3011144e+01 </wgt>
<wgt id='1704'> +7.5868471e+01 </wgt>
<wgt id='1705'> +7.6505666e+01 </wgt>
<wgt id='1706'> +7.5962543e+01 </wgt>
<wgt id='1707'> +7.8220559e+01 </wgt>
<wgt id='1708'> +7.6424437e+01 </wgt>
<wgt id='1709'> +7.6610183e+01 </wgt>
<wgt id='1710'> +7.5986633e+01 </wgt>
<wgt id='1711'> +7.6553070e+01 </wgt>
<wgt id='1712'> +7.6360440e+01 </wgt>
<wgt id='1713'> +7.6444687e+01 </wgt>
<wgt id='1714'> +7.6202475e+01 </wgt>
<wgt id='1715'> +7.6210818e+01 </wgt>
<wgt id='1716'> +7.6445006e+01 </wgt>
<wgt id='1717'> +7.6616886e+01 </wgt>
<wgt id='1718'> +7.6840553e+01 </wgt>
<wgt id='1719'> +7.6375501e+01 </wgt>
<wgt id='1720'> +7.6493124e+01 </wgt>
<wgt id='1721'> +7.6420033e+01 </wgt>
<wgt id='1722'> +7.6940886e+01 </wgt>
<wgt id='1723'> +7.6470073e+01 </wgt>
<wgt id='1724'> +7.6504957e+01 </wgt>
<wgt id='1725'> +7.6566393e+01 </wgt>
<wgt id='1726'> +7.6552335e+01 </wgt>
<wgt id='1727'> +7.7464660e+01 </wgt>
<wgt id='1728'> +7.6529461e+01 </wgt>
<wgt id='1729'> +7.6546638e+01 </wgt>
<wgt id='1730'> +7.6651367e+01 </wgt>
<wgt id='1731'> +7.6509364e+01 </wgt>
<wgt id='1732'> +7.6436715e+01 </wgt>
<wgt id='1733'> +7.6628573e+01 </wgt>
<wgt id='1734'> +7.6610113e+01 </wgt>
<wgt id='1735'> +7.6522318e+01 </wgt>
<wgt id='1736'> +7.4913222e+01 </wgt>
<wgt id='1737'> +7.7911433e+01 </wgt>
<wgt id='1738'> +7.7121182e+01 </wgt>
<wgt id='1739'> +7.7146267e+01 </wgt>
<wgt id='1740'> +7.7096316e+01 </wgt>
<wgt id='1741'> +7.7186882e+01 </wgt>
<wgt id='1742'> +7.7055465e+01 </wgt>
<wgt id='1743'> +7.7260381e+01 </wgt>
<wgt id='1744'> +7.6982229e+01 </wgt>
<wgt id='1745'> +7.7250339e+01 </wgt>
<wgt id='1746'> +7.6990233e+01 </wgt>
<wgt id='1747'> +7.7468786e+01 </wgt>
<wgt id='1748'> +7.6778426e+01 </wgt>
<wgt id='1749'> +7.6956633e+01 </wgt>
<wgt id='1750'> +7.7298867e+01 </wgt>
<wgt id='1751'> +7.6882416e+01 </wgt>
<wgt id='1752'> +7.7361310e+01 </wgt>
<wgt id='1753'> +7.7023132e+01 </wgt>
<wgt id='1754'> +7.7136363e+01 </wgt>
<wgt id='1755'> +7.7197323e+01 </wgt>
<wgt id='1756'> +7.7040200e+01 </wgt>
<wgt id='1757'> +7.7121042e+01 </wgt>
<wgt id='1758'> +7.7109881e+01 </wgt>
<wgt id='1759'> +7.7364745e+01 </wgt>
<wgt id='1760'> +7.6807124e+01 </wgt>
<wgt id='1761'> +7.7105602e+01 </wgt>
<wgt id='1762'> +7.6827047e+01 </wgt>
<wgt id='1763'> +7.7131930e+01 </wgt>
<wgt id='1764'> +7.7204522e+01 </wgt>
<wgt id='1765'> +7.7439231e+01 </wgt>
<wgt id='1766'> +7.6858182e+01 </wgt>
<wgt id='1767'> +7.7121182e+01 </wgt>
<wgt id='1768'> +7.8316692e+01 </wgt>
<wgt id='1769'> +7.5619064e+01 </wgt>
<wgt id='1770'> +7.8786904e+01 </wgt>
<wgt id='1771'> +7.6640663e+01 </wgt>
<wgt id='1772'> +7.7254345e+01 </wgt>
<wgt id='1773'> +7.6976962e+01 </wgt>
<wgt id='1774'> +7.6946891e+01 </wgt>
<wgt id='1775'> +7.7292470e+01 </wgt>
<wgt id='1776'> +7.6775577e+01 </wgt>
<wgt id='1777'> +7.7455605e+01 </wgt>
<wgt id='1778'> +7.6877170e+01 </wgt>
<wgt id='1779'> +7.7582068e+01 </wgt>
<wgt id='1780'> +7.5035595e+01 </wgt>
<wgt id='1781'> +7.6890800e+01 </wgt>
<wgt id='1782'> +7.6953715e+01 </wgt>
<wgt id='1783'> +7.6826261e+01 </wgt>
<wgt id='1784'> +7.6858280e+01 </wgt>
<wgt id='1785'> +7.6921605e+01 </wgt>
<wgt id='1786'> +7.7008850e+01 </wgt>
<wgt id='1787'> +7.6771082e+01 </wgt>
<wgt id='1788'> +7.7020413e+01 </wgt>
<wgt id='1789'> +7.6755170e+01 </wgt>
<wgt id='1790'> +7.6961676e+01 </wgt>
<wgt id='1791'> +7.6819151e+01 </wgt>
<wgt id='1792'> +7.7220782e+01 </wgt>
<wgt id='1793'> +7.6565730e+01 </wgt>
<wgt id='1794'> +7.6667359e+01 </wgt>
<wgt id='1795'> +7.7111095e+01 </wgt>
<wgt id='1796'> +7.6780647e+01 </wgt>
<wgt id='1797'> +7.6926029e+01 </wgt>
<wgt id='1798'> +7.7001347e+01 </wgt>
<wgt id='1799'> +7.6767318e+01 </wgt>
<wgt id='1800'> +7.6920632e+01 </wgt>
<wgt id='1801'> +7.6871003e+01 </wgt>
<wgt id='1802'> +7.6545850e+01 </wgt>
<wgt id='1803'> +7.7142622e+01 </wgt>
<wgt id='1804'> +7.7001101e+01 </wgt>
<wgt id='1805'> +7.6772625e+01 </wgt>
<wgt id='1806'> +7.6813565e+01 </wgt>
<wgt id='1807'> +7.6815708e+01 </wgt>
<wgt id='1808'> +7.7129192e+01 </wgt>
<wgt id='1809'> +7.6737655e+01 </wgt>
<wgt id='1810'> +7.6800480e+01 </wgt>
<wgt id='1811'> +7.8198191e+01 </wgt>
<wgt id='1812'> +7.5093065e+01 </wgt>
<wgt id='1813'> +7.8646623e+01 </wgt>
<wgt id='1814'> +7.6183858e+01 </wgt>
<wgt id='1815'> +7.6878945e+01 </wgt>
<wgt id='1816'> +7.6425111e+01 </wgt>
<wgt id='1817'> +7.6603600e+01 </wgt>
<wgt id='1818'> +7.7046971e+01 </wgt>
<wgt id='1819'> +7.6576434e+01 </wgt>
<wgt id='1820'> +7.7113906e+01 </wgt>
<wgt id='1821'> +7.6839430e+01 </wgt>
<wgt id='1822'> +7.7320575e+01 </wgt>
<wgt id='1823'> +7.6477778e+01 </wgt>
<wgt id='1824'> +7.2777951e+01 </wgt>
<wgt id='1825'> +7.2759077e+01 </wgt>
<wgt id='1826'> +7.2740005e+01 </wgt>
<wgt id='1827'> +7.2721195e+01 </wgt>
<wgt id='1828'> +7.2702165e+01 </wgt>
<wgt id='1829'> +7.2683201e+01 </wgt>
<wgt id='1830'> +7.2664239e+01 </wgt>
<wgt id='1831'> +7.2645465e+01 </wgt>
<wgt id='1832'> +7.2626339e+01 </wgt>
<wgt id='1833'> +7.2607335e+01 </wgt>
<wgt id='1834'> +7.2588408e+01 </wgt>
<wgt id='1835'> +7.2569433e+01 </wgt>
<wgt id='1836'> +7.2550599e+01 </wgt>
<wgt id='1837'> +7.2531532e+01 </wgt>
<wgt id='1838'> +7.2512764e+01 </wgt>
<wgt id='1839'> +7.2493667e+01 </wgt>
<wgt id='1840'> +7.2474600e+01 </wgt>
<wgt id='1841'> +7.2455820e+01 </wgt>
<wgt id='1842'> +7.2436790e+01 </wgt>
<wgt id='1843'> +7.2417937e+01 </wgt>
<wgt id='1844'> +7.2398936e+01 </wgt>
<wgt id='1845'> +7.2380191e+01 </wgt>
<wgt id='1846'> +7.2361111e+01 </wgt>
<wgt id='1847'> +7.2342212e+01 </wgt>
<wgt id='1848'> +7.2323218e+01 </wgt>
<wgt id='1849'> +7.2304204e+01 </wgt>
<wgt id='1850'> +7.2285486e+01 </wgt>
<wgt id='1851'> +7.2266348e+01 </wgt>
<wgt id='1852'> +7.2247571e+01 </wgt>
<wgt id='1853'> +7.2228615e+01 </wgt>
<wgt id='1854'> +7.2209727e+01 </wgt>
<wgt id='1855'> +7.5872083e+01 </wgt>
<wgt id='1856'> +7.5887203e+01 </wgt>
<wgt id='1857'> +7.6143773e+01 </wgt>
<wgt id='1858'> +7.5448816e+01 </wgt>
<wgt id='1859'> +7.6002176e+01 </wgt>
<wgt id='1860'> +7.6567782e+01 </wgt>
<wgt id='1861'> +7.5765139e+01 </wgt>
<wgt id='1862'> +7.5598204e+01 </wgt>
<wgt id='1863'> +7.5738086e+01 </wgt>
<wgt id='1864'> +7.5849736e+01 </wgt>
<wgt id='1865'> +7.5385562e+01 </wgt>
<wgt id='1866'> +7.7046027e+01 </wgt>
<wgt id='1867'> +7.6043806e+01 </wgt>
<wgt id='1868'> +7.5291169e+01 </wgt>
<wgt id='1869'> +7.5407465e+01 </wgt>
<wgt id='1870'> +7.6859138e+01 </wgt>
<wgt id='1871'> +7.6398786e+01 </wgt>
<wgt id='1872'> +7.5646779e+01 </wgt>
<wgt id='1873'> +7.5784792e+01 </wgt>
<wgt id='1874'> +7.5491426e+01 </wgt>
<wgt id='1875'> +7.6100779e+01 </wgt>
<wgt id='1876'> +7.5877318e+01 </wgt>
<wgt id='1877'> +7.5528069e+01 </wgt>
<wgt id='1878'> +7.5834967e+01 </wgt>
<wgt id='1879'> +7.5326763e+01 </wgt>
<wgt id='1880'> +7.5836291e+01 </wgt>
<wgt id='1881'> +7.5836204e+01 </wgt>
<wgt id='1882'> +7.5666808e+01 </wgt>
<wgt id='1883'> +7.6111354e+01 </wgt>
<wgt id='1884'> +7.5964958e+01 </wgt>
<wgt id='1885'> +7.5769342e+01 </wgt>
<wgt id='1886'> +7.5830147e+01 </wgt>
<wgt id='1887'> +7.5729401e+01 </wgt>
<wgt id='1888'> +7.6084432e+01 </wgt>
<wgt id='1889'> +7.5822860e+01 </wgt>
<wgt id='1890'> +7.6202034e+01 </wgt>
<wgt id='1891'> +7.5899240e+01 </wgt>
<wgt id='1892'> +7.5942481e+01 </wgt>
<wgt id='1893'> +7.5946269e+01 </wgt>
<wgt id='1894'> +7.5922710e+01 </wgt>
<wgt id='1895'> +7.5858893e+01 </wgt>
<wgt id='1896'> +7.5924188e+01 </wgt>
<wgt id='1897'> +7.5811737e+01 </wgt>
<wgt id='1898'> +7.5730496e+01 </wgt>
<wgt id='1899'> +7.5797735e+01 </wgt>
<wgt id='1900'> +7.5938234e+01 </wgt>
<wgt id='1901'> +7.5869026e+01 </wgt>
<wgt id='1902'> +7.5812574e+01 </wgt>
<wgt id='1903'> +7.5906927e+01 </wgt>
<wgt id='1904'> +7.5856084e+01 </wgt>
<wgt id='1905'> +7.5947601e+01 </wgt>
<wgt id='1906'> +7.5921194e+01 </wgt>
<wgt id='1907'> +7.5899720e+01 </wgt>
<wgt id='1908'> +7.5887877e+01 </wgt>
<wgt id='1909'> +7.5855859e+01 </wgt>
<wgt id='1910'> +7.5855237e+01 </wgt>
<wgt id='1911'> +7.5870940e+01 </wgt>
<wgt id='1912'> +7.5855720e+01 </wgt>
<wgt id='1913'> +7.5759049e+01 </wgt>
<wgt id='1914'> +7.5859662e+01 </wgt>
<wgt id='1915'> +7.5821055e+01 </wgt>
<wgt id='1916'> +7.5893358e+01 </wgt>
<wgt id='1917'> +7.5869916e+01 </wgt>
<wgt id='1918'> +7.5900791e+01 </wgt>
<wgt id='1919'> +7.5840379e+01 </wgt>
<wgt id='1920'> +7.5855794e+01 </wgt>
<wgt id='1921'> +7.5921301e+01 </wgt>
<wgt id='1922'> +7.5896419e+01 </wgt>
<wgt id='1923'> +7.5885902e+01 </wgt>
<wgt id='1924'> +7.5937535e+01 </wgt>
<wgt id='1925'> +7.5883159e+01 </wgt>
<wgt id='1926'> +7.5894406e+01 </wgt>
<wgt id='1927'> +7.5912624e+01 </wgt>
<wgt id='1928'> +7.5850637e+01 </wgt>
<wgt id='1929'> +7.5904813e+01 </wgt>
<wgt id='1930'> +7.5860138e+01 </wgt>
<wgt id='1931'> +7.5865928e+01 </wgt>
<wgt id='1932'> +7.5881456e+01 </wgt>
<wgt id='1933'> +7.5885118e+01 </wgt>
<wgt id='1934'> +7.5859674e+01 </wgt>
<wgt id='1935'> +7.5895300e+01 </wgt>
<wgt id='1936'> +7.5860299e+01 </wgt>
<wgt id='1937'> +7.5889728e+01 </wgt>
<wgt id='1938'> +7.5848126e+01 </wgt>
<wgt id='1939'> +7.5839927e+01 </wgt>
<wgt id='1940'> +7.5858490e+01 </wgt>
<wgt id='1941'> +7.5871815e+01 </wgt>
<wgt id='1942'> +7.5834171e+01 </wgt>
<wgt id='1943'> +7.5858488e+01 </wgt>
<wgt id='1944'> +7.5842555e+01 </wgt>
<wgt id='1945'> +7.5902965e+01 </wgt>
<wgt id='1946'> +7.5858175e+01 </wgt>
<wgt id='1947'> +7.5870482e+01 </wgt>
<wgt id='1948'> +7.5876616e+01 </wgt>
<wgt id='1949'> +7.5876307e+01 </wgt>
<wgt id='1950'> +7.5872888e+01 </wgt>
<wgt id='1951'> +7.5872052e+01 </wgt>
<wgt id='1952'> +7.5875002e+01 </wgt>
<wgt id='1953'> +7.5860902e+01 </wgt>
<wgt id='1954'> +7.5871997e+01 </wgt>
<wgt id='1955'> +7.5887666e+01 </wgt>
<wgt id='1956'> +7.5871480e+01 </wgt>
<wgt id='1957'> +7.5875380e+01 </wgt>
<wgt id='1958'> +7.5872717e+01 </wgt>
<wgt id='1959'> +7.5872821e+01 </wgt>
<wgt id='1960'> +7.5873938e+01 </wgt>
<wgt id='1961'> +7.5872351e+01 </wgt>
<wgt id='1962'> +7.5876073e+01 </wgt>
</rwgt>
</event>
<event npLO=" -1 " npNLO=" 1 ">
 7      1 +1.5146096e+02 3.27972440e+01 7.54677110e-03 1.25324280e-01
        1 -1    0    0  502    0 +0.0000000000e+00 +0.0000000000e+00 +1.3394565000e+02 1.3394565000e+02 0.0000000000e+00 0.0000e+00 9.0000e+00
       21 -1    0    0  501  502 +0.0000000000e+00 +0.0000000000e+00 -2.8266699000e+02 2.8266699000e+02 0.0000000000e+00 0.0000e+00 9.0000e+00
       23  2    1    2    0    0 -5.6895743000e+01 -1.1000278000e+01 +4.5576455000e+01 1.2244512000e+02 9.7762275000e+01 0.0000e+00 0.0000e+00
       15  1    3    3    0    0 +3.1635014000e+00 -3.9827241000e+01 -2.8074507000e+00 4.0090602000e+01 1.7770000000e+00 0.0000e+00 9.0000e+00
      -15  1    3    3    0    0 -6.0059244000e+01 +2.8826963000e+01 +4.8383905000e+01 8.2354518000e+01 1.7770000000e+00 0.0000e+00 9.0000e+00
       22  1    1    2    0    0 +7.5542296000e+01 +3.7981110000e+01 +1.1892402000e+01 8.5385200000e+01 0.0000000000e+00 0.0000e+00 9.0000e+00
        1  1    1    2  501    0 -1.8646553000e+01 -2.6980832000e+01 -2.0619020000e+02 2.0878232000e+02 0.0000000000e+00 0.0000e+00 9.0000e+00
#aMCatNLO 1  0  0  0  0 0.00000000E+00 0.00000000E+00 -9  7  0 0.00000000E+00 0.00000000E+00 0.00000000E+00 0.00000000E+00 0.00000000E+00
<rwgt>
<wgt id='1001'> +1.5146000e+02 </wgt>
<wgt id='1002'> +1.5146000e+02 </wgt>
<wgt id='1003'> +1.4599000e+02 </wgt>
<wgt id='1004'> +1.5523000e+02 </wgt>
<wgt id='1005'> +1.5177000e+02 </wgt>
<wgt id='1006'> +1.5180000e+02 </wgt>
<wgt id='1007'> +1.3954000e+02 </wgt>
<wgt id='1008'> +1.5100000e+02 </wgt>
<wgt id='1009'> +1.5486000e+02 </wgt>
<wgt id='1010'> +1.5012000e+02 </wgt>
<wgt id='1011'> +1.5209000e+02 </wgt>
<wgt id='1012'> +1.5106000e+02 </wgt>
<wgt id='1013'> +1.4974000e+02 </wgt>
<wgt id='1014'> +1.5301000e+02 </wgt>
<wgt id='1015'> +1.5409000e+02 </wgt>
<wgt id='1016'> +1.5062000e+02 </wgt>
<wgt id='1017'> +1.5426000e+02 </wgt>
<wgt id='1018'> +1.4712000e+02 </wgt>
<wgt id='1019'> +1.4973000e+02 </wgt>
<wgt id='1020'> +1.4630000e+02 </wgt>
<wgt id='1021'> +1.5588000e+02 </wgt>
<wgt id='1022'> +1.5145000e+02 </wgt>
<wgt id='1023'> +1.5846000e+02 </wgt>
<wgt id='1024'> +1.5012000e+02 </wgt>
<wgt id='1025'> +1.5860000e+02 </wgt>
<wgt id='1026'> +1.5031000e+02 </wgt>
<wgt id='1027'> +1.5256000e+02 </wgt>
<wgt id='1028'> +1.4919000e+02 </wgt>
<wgt id='1029'> +1.4951000e+02 </wgt>
<wgt id='1030'> +1.5266000e+02 </wgt>
<wgt id='1031'> +1.5137000e+02 </wgt>
<wgt id='1032'> +1.5353000e+02 </wgt>
<wgt id='1033'> +1.5036000e+02 </wgt>
<wgt id='1034'> +1.4779000e+02 </wgt>
<wgt id='1035'> +1.5145000e+02 </wgt>
<wgt id='1036'> +1.4912000e+02 </wgt>
<wgt id='1037'> +1.5361000e+02 </wgt>
<wgt id='1038'> +1.4895000e+02 </wgt>
<wgt id='1039'> +1.5263000e+02 </wgt>
<wgt id='1040'> +1.5034000e+02 </wgt>
<wgt id='1041'> +1.5012000e+02 </wgt>
<wgt id='1042'> +1.5151000e+02 </wgt>
<wgt id='1043'> +1.5885000e+02 </wgt>
<wgt id='1044'> +1.5407000e+02 </wgt>
<wgt id='1045'> +1.5031000e+02 </wgt>
<wgt id='1046'> +1.4844000e+02 </wgt>
<wgt id='1047'> +1.5060000e+02 </wgt>
<wgt id='1048'> +1.5458000e+02 </wgt>
<wgt id='1049'> +1.4998000e+02 </wgt>
<wgt id='1050'> +1.5181000e+02 </wgt>
<wgt id='1051'> +1.4951000e+02 </wgt>
<wgt id='1052'> +1.5184000e+02 </wgt>
<wgt id='1053'> +1.5430000e+02 </wgt>
<wgt id='1054'> +1.4727000e+02 </wgt>
<wgt id='1055'> +1.5164000e+02 </wgt>
<wgt id='1056'> +1.5401000e+02 </wgt>
<wgt id='1057'> +1.4873000e+02 </wgt>
<wgt id='1058'> +1.4859000e+02 </wgt>
<wgt id='1059'> +1.5427000e+02 </wgt>
<wgt id='1060'> +1.4962000e+02 </wgt>
<wgt id='1061'> +1.5140000e+02 </wgt>
<wgt id='1062'> +1.5047000e+02 </wgt>
<wgt id='1063'> +1.5099000e+02 </wgt>
<wgt id='1064'> +1.5376000e+02 </wgt>
<wgt id='1065'> +1.5435000e+02 </wgt>
<wgt id='1066'> +1.4790000e+02 </wgt>
<wgt id='1067'> +1.5360000e+02 </wgt>
<wgt id='1068'> +1.4902000e+02 </wgt>
<wgt id='1069'> +1.5936000e+02 </wgt>
<wgt id='1070'> +1.5126000e+02 </wgt>
<wgt id='1071'> +1.4945000e+02 </wgt>
<wgt id='1072'> +1.4710000e+02 </wgt>
<wgt id='1073'> +1.5009000e+02 </wgt>
<wgt id='1074'> +1.4884000e+02 </wgt>
<wgt id='1075'> +1.4808000e+02 </wgt>
<wgt id='1076'> +1.5154000e+02 </wgt>
<wgt id='1077'> +1.5558000e+02 </wgt>
<wgt id='1078'> +1.4475000e+02 </wgt>
<wgt id='1079'> +1.5084000e+02 </wgt>
<wgt id='1080'> +1.5428000e+02 </wgt>
<wgt id='1081'> +1.5121000e+02 </wgt>
<wgt id='1082'> +1.4924000e+02 </wgt>
<wgt id='1083'> +1.5203000e+02 </wgt>
<wgt id='1084'> +1.5328000e+02 </wgt>
<wgt id='1085'> +1.5154000e+02 </wgt>
<wgt id='1086'> +1.5145000e+02 </wgt>
<wgt id='1087'> +1.5209000e+02 </wgt>
<wgt id='1088'> +1.5246000e+02 </wgt>
<wgt id='1089'> +1.5170000e+02 </wgt>
<wgt id='1090'> +1.5442000e+02 </wgt>
<wgt id='1091'> +1.5514000e+02 </wgt>
<wgt id='1092'> +1.5247000e+02 </wgt>
<wgt id='1093'> +1.5695000e+02 </wgt>
<wgt id='1094'> +1.4856000e+02 </wgt>
<wgt id='1095'> +1.5026000e+02 </wgt>
<wgt id='1096'> +1.5415000e+02 </wgt>
<wgt id='1097'> +1.4649000e+02 </wgt>
<wgt id='1098'> +1.5367000e+02 </wgt>
<wgt id='1099'> +1.5206000e+02 </wgt>
<wgt id='1100'> +1.5277000e+02 </wgt>
<wgt id='1101'> +1.5407000e+02 </wgt>
<wgt id='1102'> +1.5076000e+02 </wgt>
<wgt id='1103'> +1.5011000e+02 </wgt>
<wgt id='1104'> +1.5260000e+02 </wgt>
<wgt id='1105'> +1.5146096e+02 </wgt>
<wgt id='1106'> +7.2136907e+01 </wgt>
<wgt id='1107'> +7.8667730e+01 </wgt>
<wgt id='1108'> +7.5227050e+01 </wgt>
<wgt id='1109'> +7.1602912e+01 </wgt>
<wgt id='1110'> +7.8234869e+01 </wgt>
<wgt id='1111'> +7.5523173e+01 </wgt>
<wgt id='1112'> +7.1994601e+01 </wgt>
<wgt id='1113'> +7.8361115e+01 </wgt>
<wgt id='1114'> +7.7406454e+01 </wgt>
<wgt id='1115'> +8.1770862e+01 </wgt>
<wgt id='1116'> +7.7964779e+01 </wgt>
<wgt id='1117'> +7.6023310e+01 </wgt>
<wgt id='1118'> +7.5478790e+01 </wgt>
<wgt id='1119'> +7.6568940e+01 </wgt>
<wgt id='1120'> +8.2220462e+01 </wgt>
<wgt id='1121'> +7.8341920e+01 </wgt>
<wgt id='1122'> +7.5847664e+01 </wgt>
<wgt id='1123'> +7.7003537e+01 </wgt>
<wgt id='1124'> +7.7130624e+01 </wgt>
<wgt id='1125'> +7.7882487e+01 </wgt>
<wgt id='1126'> +7.6668064e+01 </wgt>
<wgt id='1127'> +7.6292761e+01 </wgt>
<wgt id='1128'> +7.5845952e+01 </wgt>
<wgt id='1129'> +7.9013520e+01 </wgt>
<wgt id='1130'> +7.8490203e+01 </wgt>
<wgt id='1131'> +7.9837605e+01 </wgt>
<wgt id='1132'> +7.7008988e+01 </wgt>
<wgt id='1133'> +7.5983377e+01 </wgt>
<wgt id='1134'> +7.4559199e+01 </wgt>
<wgt id='1135'> +7.5230991e+01 </wgt>
<wgt id='1136'> +7.6337277e+01 </wgt>
<wgt id='1137'> +7.9247788e+01 </wgt>
<wgt id='1138'> +7.7217499e+01 </wgt>
<wgt id='1139'> +7.5459562e+01 </wgt>
<wgt id='1140'> +7.7480980e+01 </wgt>
<wgt id='1141'> +7.7687081e+01 </wgt>
<wgt id='1142'> +7.7842751e+01 </wgt>
<wgt id='1143'> +7.9080469e+01 </wgt>
<wgt id='1144'> +7.9251355e+01 </wgt>
<wgt id='1145'> +7.7725032e+01 </wgt>
<wgt id='1146'> +7.7954771e+01 </wgt>
<wgt id='1147'> +7.7427253e+01 </wgt>
<wgt id='1148'> +7.5802016e+01 </wgt>
<wgt id='1149'> +7.9217056e+01 </wgt>
<wgt id='1150'> +7.6980880e+01 </wgt>
<wgt id='1151'> +7.8770161e+01 </wgt>
<wgt id='1152'> +7.6387780e+01 </wgt>
<wgt id='1153'> +7.6139494e+01 </wgt>
<wgt id='1154'> +7.5336396e+01 </wgt>
<wgt id='1155'> +7.5138913e+01 </wgt>
<wgt id='1156'> +7.7501251e+01 </wgt>
<wgt id='1157'> +7.7737216e+01 </wgt>
<wgt id='1158'> +7.7649282e+01 </wgt>
<wgt id='1159'> +7.8966098e+01 </wgt>
<wgt id='1160'> +7.8331984e+01 </wgt>
<wgt id='1161'> +7.5931821e+01 </wgt>
<wgt id='1162'> +7.4396815e+01 </wgt>
<wgt id='1163'> +7.9507558e+01 </wgt>
<wgt id='1164'> +7.9632129e+01 </wgt>
<wgt id='1165'> +7.9192696e+01 </wgt>
<wgt id='1166'> +7.6766003e+01 </wgt>
<wgt id='1167'> +7.6138363e+01 </wgt>
<wgt id='1168'> +8.0902988e+01 </wgt>
<wgt id='1169'> +7.4926586e+01 </wgt>
<wgt id='1170'> +7.8573738e+01 </wgt>
<wgt id='1171'> +8.0354025e+01 </wgt>
<wgt id='1172'> +7.5815544e+01 </wgt>
<wgt id='1173'> +7.7977848e+01 </wgt>
<wgt id='1174'> +7.8669271e+01 </wgt>
<wgt id='1175'> +7.7671405e+01 </wgt>
<wgt id='1176'> +7.9022546e+01 </wgt>
<wgt id='1177'> +7.5084475e+01 </wgt>
<wgt id='1178'> +7.4726650e+01 </wgt>
<wgt id='1179'> +7.7398584e+01 </wgt>
<wgt id='1180'> +7.7540296e+01 </wgt>
<wgt id='1181'> +7.7801340e+01 </wgt>
<wgt id='1182'> +7.8922557e+01 </wgt>
<wgt id='1183'> +7.7250692e+01 </wgt>
<wgt id='1184'> +7.7078856e+01 </wgt>
<wgt id='1185'> +7.7784149e+01 </wgt>
<wgt id='1186'> +8.1117072e+01 </wgt>
<wgt id='1187'> +7.5130283e+01 </wgt>
<wgt id='1188'> +7.5592830e+01 </wgt>
<wgt id='1189'> +7.6542857e+01 </wgt>
<wgt id='1190'> +7.8004676e+01 </wgt>
<wgt id='1191'> +7.4664387e+01 </wgt>
<wgt id='1192'> +7.8100539e+01 </wgt>
<wgt id='1193'> +7.6422808e+01 </wgt>
<wgt id='1194'> +7.6051782e+01 </wgt>
<wgt id='1195'> +7.5933397e+01 </wgt>
<wgt id='1196'> +7.8490203e+01 </wgt>
<wgt id='1197'> +7.5798212e+01 </wgt>
<wgt id='1198'> +7.6564127e+01 </wgt>
<wgt id='1199'> +7.8567486e+01 </wgt>
<wgt id='1200'> +7.9224378e+01 </wgt>
<wgt id='1201'> +7.9682869e+01 </wgt>
<wgt id='1202'> +7.8535190e+01 </wgt>
<wgt id='1203'> +7.4755897e+01 </wgt>
<wgt id='1204'> +7.7290297e+01 </wgt>
<wgt id='1205'> +7.8501121e+01 </wgt>
<wgt id='1206'> +7.7094854e+01 </wgt>
<wgt id='1207'> +7.7125401e+01 </wgt>
<wgt id='1208'> +8.0581750e+01 </wgt>
<wgt id='1209'> +7.8195571e+01 </wgt>
<wgt id='1210'> +7.6486491e+01 </wgt>
<wgt id='1211'> +7.6375626e+01 </wgt>
<wgt id='1212'> +7.7015085e+01 </wgt>
<wgt id='1213'> +7.4641802e+01 </wgt>
<wgt id='1214'> +7.7254182e+01 </wgt>
<wgt id='1215'> +7.5841373e+01 </wgt>
<wgt id='1216'> +7.7347492e+01 </wgt>
<wgt id='1217'> +7.7350814e+01 </wgt>
<wgt id='1218'> +7.7461445e+01 </wgt>
<wgt id='1219'> +7.7339353e+01 </wgt>
<wgt id='1220'> +7.7442187e+01 </wgt>
<wgt id='1221'> +7.7507587e+01 </wgt>
<wgt id='1222'> +7.7192692e+01 </wgt>
<wgt id='1223'> +7.7596804e+01 </wgt>
<wgt id='1224'> +7.7502649e+01 </wgt>
<wgt id='1225'> +7.7636680e+01 </wgt>
<wgt id='1226'> +7.7112165e+01 </wgt>
<wgt id='1227'> +7.7187777e+01 </wgt>
<wgt id='1228'> +7.7413057e+01 </wgt>
<wgt id='1229'> +7.7587947e+01 </wgt>
<wgt id='1230'> +7.7492155e+01 </wgt>
<wgt id='1231'> +7.7032111e+01 </wgt>
<wgt id='1232'> +7.7798590e+01 </wgt>
<wgt id='1233'> +7.7197212e+01 </wgt>
<wgt id='1234'> +7.7628673e+01 </wgt>
<wgt id='1235'> +7.7166314e+01 </wgt>
<wgt id='1236'> +7.6831987e+01 </wgt>
<wgt id='1237'> +7.7599854e+01 </wgt>
<wgt id='1238'> +7.7335109e+01 </wgt>
<wgt id='1239'> +7.7099156e+01 </wgt>
<wgt id='1240'> +7.7666130e+01 </wgt>
<wgt id='1241'> +7.7090842e+01 </wgt>
<wgt id='1242'> +7.7604990e+01 </wgt>
<wgt id='1243'> +7.7010067e+01 </wgt>
<wgt id='1244'> +7.7016511e+01 </wgt>
<wgt id='1245'> +7.7826544e+01 </wgt>
<wgt id='1246'> +7.7677714e+01 </wgt>
<wgt id='1247'> +7.6833723e+01 </wgt>
<wgt id='1248'> +7.7804720e+01 </wgt>
<wgt id='1249'> +7.7306410e+01 </wgt>
<wgt id='1250'> +7.7195705e+01 </wgt>
<wgt id='1251'> +7.7535502e+01 </wgt>
<wgt id='1252'> +7.7351764e+01 </wgt>
<wgt id='1253'> +7.7132094e+01 </wgt>
<wgt id='1254'> +7.7226266e+01 </wgt>
<wgt id='1255'> +7.7378653e+01 </wgt>
<wgt id='1256'> +7.7362938e+01 </wgt>
<wgt id='1257'> +7.7527927e+01 </wgt>
<wgt id='1258'> +7.7111816e+01 </wgt>
<wgt id='1259'> +7.7172751e+01 </wgt>
<wgt id='1260'> +7.7262655e+01 </wgt>
<wgt id='1261'> +7.7195972e+01 </wgt>
<wgt id='1262'> +7.7434442e+01 </wgt>
<wgt id='1263'> +7.7485034e+01 </wgt>
<wgt id='1264'> +7.7502332e+01 </wgt>
<wgt id='1265'> +7.7428625e+01 </wgt>
<wgt id='1266'> +7.7446520e+01 </wgt>
<wgt id='1267'> +7.7306545e+01 </wgt>
<wgt id='1268'> +7.7210545e+01 </wgt>
<wgt id='1269'> +7.7314475e+01 </wgt>
<wgt id='1270'> +7.7343625e+01 </wgt>
<wgt id='1271'> +7.7407881e+01 </wgt>
<wgt id='1272'> +7.7467309e+01 </wgt>
<wgt id='1273'> +7.7279589e+01 </wgt>
<wgt id='1274'> +7.7393476e+01 </wgt>
<wgt id='1275'> +7.7312116e+01 </wgt>
<wgt id='1276'> +7.7218086e+01 </wgt>
<wgt id='1277'> +7.7411622e+01 </wgt>
<wgt id='1278'> +7.7526754e+01 </wgt>
<wgt id='1279'> +7.7504806e+01 </wgt>
<wgt id='1280'> +7.7314044e+01 </wgt>
<wgt id='1281'> +7.7326929e+01 </wgt>
<wgt id='1282'> +7.7370307e+01 </wgt>
<wgt id='1283'> +7.7267137e+01 </wgt>
<wgt id='1284'> +7.7303782e+01 </wgt>
<wgt id='1285'> +7.7245707e+01 </wgt>
<wgt id='1286'> +7.7350740e+01 </wgt>
<wgt id='1287'> +7.7414188e+01 </wgt>
<wgt id='1288'> +7.7502271e+01 </wgt>
<wgt id='1289'> +7.7321427e+01 </wgt>
<wgt id='1290'> +7.7404721e+01 </wgt>
<wgt id='1291'> +7.7342377e+01 </wgt>
<wgt id='1292'> +7.7305415e+01 </wgt>
<wgt id='1293'> +7.7382132e+01 </wgt>
<wgt id='1294'> +7.7325002e+01 </wgt>
<wgt id='1295'> +7.7358694e+01 </wgt>
<wgt id='1296'> +7.7319995e+01 </wgt>
<wgt id='1297'> +7.7281935e+01 </wgt>
<wgt id='1298'> +7.7350108e+01 </wgt>
<wgt id='1299'> +7.7330177e+01 </wgt>
<wgt id='1300'> +7.7348586e+01 </wgt>
<wgt id='1301'> +7.7379251e+01 </wgt>
<wgt id='1302'> +7.7337314e+01 </wgt>
<wgt id='1303'> +7.7294268e+01 </wgt>
<wgt id='1304'> +7.7365180e+01 </wgt>
<wgt id='1305'> +7.7412162e+01 </wgt>
<wgt id='1306'> +7.7340918e+01 </wgt>
<wgt id='1307'> +7.7303124e+01 </wgt>
<wgt id='1308'> +7.7377722e+01 </wgt>
<wgt id='1309'> +7.7339866e+01 </wgt>
<wgt id='1310'> +7.7369860e+01 </wgt>
<wgt id='1311'> +7.7314248e+01 </wgt>
<wgt id='1312'> +7.7312263e+01 </wgt>
<wgt id='1313'> +7.7338303e+01 </wgt>
<wgt id='1314'> +7.7328095e+01 </wgt>
<wgt id='1315'> +7.7315449e+01 </wgt>
<wgt id='1316'> +7.7387857e+01 </wgt>
<wgt id='1317'> +7.5748834e+01 </wgt>
<wgt id='1318'> +7.9021461e+01 </wgt>
<wgt id='1319'> +7.5410148e+01 </wgt>
<wgt id='1320'> +7.5260203e+01 </wgt>
<wgt id='1321'> +7.6215896e+01 </wgt>
<wgt id='1322'> +7.5415999e+01 </wgt>
<wgt id='1323'> +7.5216025e+01 </wgt>
<wgt id='1324'> +7.4395675e+01 </wgt>
<wgt id='1325'> +7.5715501e+01 </wgt>
<wgt id='1326'> +7.5153872e+01 </wgt>
<wgt id='1327'> +7.5403576e+01 </wgt>
<wgt id='1328'> +7.5533302e+01 </wgt>
<wgt id='1329'> +7.4909852e+01 </wgt>
<wgt id='1330'> +7.4945631e+01 </wgt>
<wgt id='1331'> +7.5941162e+01 </wgt>
<wgt id='1332'> +7.4964384e+01 </wgt>
<wgt id='1333'> +7.4538746e+01 </wgt>
<wgt id='1334'> +7.5221297e+01 </wgt>
<wgt id='1335'> +7.6746503e+01 </wgt>
<wgt id='1336'> +7.3522835e+01 </wgt>
<wgt id='1337'> +7.5877271e+01 </wgt>
<wgt id='1338'> +7.4563186e+01 </wgt>
<wgt id='1339'> +7.6127002e+01 </wgt>
<wgt id='1340'> +7.4331216e+01 </wgt>
<wgt id='1341'> +7.5716719e+01 </wgt>
<wgt id='1342'> +7.4316001e+01 </wgt>
<wgt id='1343'> +7.5900163e+01 </wgt>
<wgt id='1344'> +7.4613273e+01 </wgt>
<wgt id='1345'> +7.5507609e+01 </wgt>
<wgt id='1346'> +7.4938082e+01 </wgt>
<wgt id='1347'> +7.5053651e+01 </wgt>
<wgt id='1348'> +7.5540751e+01 </wgt>
<wgt id='1349'> +7.5265246e+01 </wgt>
<wgt id='1350'> +7.5263021e+01 </wgt>
<wgt id='1351'> +7.6050158e+01 </wgt>
<wgt id='1352'> +7.4247878e+01 </wgt>
<wgt id='1353'> +7.5014734e+01 </wgt>
<wgt id='1354'> +7.5794990e+01 </wgt>
<wgt id='1355'> +7.4975252e+01 </wgt>
<wgt id='1356'> +7.5662223e+01 </wgt>
<wgt id='1357'> +7.5676920e+01 </wgt>
<wgt id='1358'> +7.4424862e+01 </wgt>
<wgt id='1359'> +7.4721048e+01 </wgt>
<wgt id='1360'> +7.5409831e+01 </wgt>
<wgt id='1361'> +7.5474202e+01 </wgt>
<wgt id='1362'> +7.5436539e+01 </wgt>
<wgt id='1363'> +7.5398198e+01 </wgt>
<wgt id='1364'> +7.5342359e+01 </wgt>
<wgt id='1365'> +7.4577775e+01 </wgt>
<wgt id='1366'> +7.4722544e+01 </wgt>
<wgt id='1367'> +7.4591330e+01 </wgt>
<wgt id='1368'> +7.3976889e+01 </wgt>
<wgt id='1369'> +7.3899166e+01 </wgt>
<wgt id='1370'> +7.4454208e+01 </wgt>
<wgt id='1371'> +7.4464004e+01 </wgt>
<wgt id='1372'> +7.4943811e+01 </wgt>
<wgt id='1373'> +7.4101212e+01 </wgt>
<wgt id='1374'> +7.5643772e+01 </wgt>
<wgt id='1375'> +7.4590653e+01 </wgt>
<wgt id='1376'> +7.7549641e+01 </wgt>
<wgt id='1377'> +7.3494000e+01 </wgt>
<wgt id='1378'> +7.6985169e+01 </wgt>
<wgt id='1379'> +7.5989525e+01 </wgt>
<wgt id='1380'> +7.4157926e+01 </wgt>
<wgt id='1381'> +7.7826458e+01 </wgt>
<wgt id='1382'> +6.6630297e+01 </wgt>
<wgt id='1383'> +7.5443861e+01 </wgt>
<wgt id='1384'> +7.6778568e+01 </wgt>
<wgt id='1385'> +7.7677404e+01 </wgt>
<wgt id='1386'> +7.7923596e+01 </wgt>
<wgt id='1387'> +7.7403505e+01 </wgt>
<wgt id='1388'> +7.7717131e+01 </wgt>
<wgt id='1389'> +7.7603253e+01 </wgt>
<wgt id='1390'> +7.7749298e+01 </wgt>
<wgt id='1391'> +7.7588810e+01 </wgt>
<wgt id='1392'> +7.7088663e+01 </wgt>
<wgt id='1393'> +7.8086518e+01 </wgt>
<wgt id='1394'> +7.7726487e+01 </wgt>
<wgt id='1395'> +7.7612930e+01 </wgt>
<wgt id='1396'> +7.7718373e+01 </wgt>
<wgt id='1397'> +7.7651807e+01 </wgt>
<wgt id='1398'> +7.7196107e+01 </wgt>
<wgt id='1399'> +7.8031661e+01 </wgt>
<wgt id='1400'> +7.6999869e+01 </wgt>
<wgt id='1401'> +7.8198828e+01 </wgt>
<wgt id='1402'> +7.7716164e+01 </wgt>
<wgt id='1403'> +7.7656247e+01 </wgt>
<wgt id='1404'> +7.6737234e+01 </wgt>
<wgt id='1405'> +7.8160436e+01 </wgt>
<wgt id='1406'> +7.7444762e+01 </wgt>
<wgt id='1407'> +7.8096513e+01 </wgt>
<wgt id='1408'> +7.7387144e+01 </wgt>
<wgt id='1409'> +7.8263582e+01 </wgt>
<wgt id='1410'> +7.7344802e+01 </wgt>
<wgt id='1411'> +7.8436500e+01 </wgt>
<wgt id='1412'> +7.7987763e+01 </wgt>
<wgt id='1413'> +7.7349231e+01 </wgt>
<wgt id='1414'> +7.7892870e+01 </wgt>
<wgt id='1415'> +7.7543681e+01 </wgt>
<wgt id='1416'> +7.7363715e+01 </wgt>
<wgt id='1417'> +7.7810314e+01 </wgt>
<wgt id='1418'> +7.7500106e+01 </wgt>
<wgt id='1419'> +7.8013200e+01 </wgt>
<wgt id='1420'> +7.7272309e+01 </wgt>
<wgt id='1421'> +7.8294884e+01 </wgt>
<wgt id='1422'> +7.8103082e+01 </wgt>
<wgt id='1423'> +7.7175768e+01 </wgt>
<wgt id='1424'> +7.8199395e+01 </wgt>
<wgt id='1425'> +7.6914773e+01 </wgt>
<wgt id='1426'> +7.8219392e+01 </wgt>
<wgt id='1427'> +7.7601853e+01 </wgt>
<wgt id='1428'> +7.7857090e+01 </wgt>
<wgt id='1429'> +7.7449950e+01 </wgt>
<wgt id='1430'> +7.7797312e+01 </wgt>
<wgt id='1431'> +7.8116343e+01 </wgt>
<wgt id='1432'> +7.7889677e+01 </wgt>
<wgt id='1433'> +7.8113177e+01 </wgt>
<wgt id='1434'> +7.7932615e+01 </wgt>
<wgt id='1435'> +7.7379554e+01 </wgt>
<wgt id='1436'> +7.2736202e+01 </wgt>
<wgt id='1437'> +7.2719082e+01 </wgt>
<wgt id='1438'> +7.2808253e+01 </wgt>
<wgt id='1439'> +7.2738411e+01 </wgt>
<wgt id='1440'> +7.2644884e+01 </wgt>
<wgt id='1441'> +7.3010673e+01 </wgt>
<wgt id='1442'> +7.2663665e+01 </wgt>
<wgt id='1443'> +7.2573035e+01 </wgt>
<wgt id='1444'> +7.2507482e+01 </wgt>
<wgt id='1445'> +7.2315779e+01 </wgt>
<wgt id='1446'> +7.2816626e+01 </wgt>
<wgt id='1447'> +7.2680089e+01 </wgt>
<wgt id='1448'> +7.2627881e+01 </wgt>
<wgt id='1449'> +7.2579381e+01 </wgt>
<wgt id='1450'> +7.2717714e+01 </wgt>
<wgt id='1451'> +7.2877023e+01 </wgt>
<wgt id='1452'> +7.2624700e+01 </wgt>
<wgt id='1453'> +7.2918150e+01 </wgt>
<wgt id='1454'> +7.2876433e+01 </wgt>
<wgt id='1455'> +7.2760259e+01 </wgt>
<wgt id='1456'> +7.2873545e+01 </wgt>
<wgt id='1457'> +7.3204665e+01 </wgt>
<wgt id='1458'> +7.3141996e+01 </wgt>
<wgt id='1459'> +7.2677425e+01 </wgt>
<wgt id='1460'> +7.2597156e+01 </wgt>
<wgt id='1461'> +7.2836780e+01 </wgt>
<wgt id='1462'> +7.2195565e+01 </wgt>
<wgt id='1463'> +7.3523201e+01 </wgt>
<wgt id='1464'> +7.2709417e+01 </wgt>
<wgt id='1465'> +7.3083954e+01 </wgt>
<wgt id='1466'> +7.5479728e+01 </wgt>
<wgt id='1467'> +7.5230701e+01 </wgt>
<wgt id='1468'> +7.5574100e+01 </wgt>
<wgt id='1469'> +7.6192415e+01 </wgt>
<wgt id='1470'> +7.5163921e+01 </wgt>
<wgt id='1471'> +7.5309329e+01 </wgt>
<wgt id='1472'> +7.5298917e+01 </wgt>
<wgt id='1473'> +7.5389034e+01 </wgt>
<wgt id='1474'> +7.5360590e+01 </wgt>
<wgt id='1475'> +7.5584563e+01 </wgt>
<wgt id='1476'> +7.5739366e+01 </wgt>
<wgt id='1477'> +7.5131411e+01 </wgt>
<wgt id='1478'> +7.5148597e+01 </wgt>
<wgt id='1479'> +7.5623576e+01 </wgt>
<wgt id='1480'> +7.4858112e+01 </wgt>
<wgt id='1481'> +7.5670176e+01 </wgt>
<wgt id='1482'> +7.5183466e+01 </wgt>
<wgt id='1483'> +7.5437211e+01 </wgt>
<wgt id='1484'> +7.5902138e+01 </wgt>
<wgt id='1485'> +7.5044611e+01 </wgt>
<wgt id='1486'> +7.5451283e+01 </wgt>
<wgt id='1487'> +7.5158206e+01 </wgt>
<wgt id='1488'> +7.5460007e+01 </wgt>
<wgt id='1489'> +7.5772841e+01 </wgt>
<wgt id='1490'> +7.5434954e+01 </wgt>
<wgt id='1491'> +7.5255249e+01 </wgt>
<wgt id='1492'> +7.5200679e+01 </wgt>
<wgt id='1493'> +7.5483967e+01 </wgt>
<wgt id='1494'> +7.5113718e+01 </wgt>
<wgt id='1495'> +7.5258064e+01 </wgt>
<wgt id='1496'> +7.5212925e+01 </wgt>
<wgt id='1497'> +7.5451046e+01 </wgt>
<wgt id='1498'> +7.5608000e+01 </wgt>
<wgt id='1499'> +7.5020458e+01 </wgt>
<wgt id='1500'> +7.5612365e+01 </wgt>
<wgt id='1501'> +7.5408389e+01 </wgt>
<wgt id='1502'> +7.5539551e+01 </wgt>
<wgt id='1503'> +7.5724001e+01 </wgt>
<wgt id='1504'> +7.5141524e+01 </wgt>
<wgt id='1505'> +7.5416286e+01 </wgt>
<wgt id='1506'> +7.5687312e+01 </wgt>
<wgt id='1507'> +7.5309950e+01 </wgt>
<wgt id='1508'> +7.5680183e+01 </wgt>
<wgt id='1509'> +7.5392348e+01 </wgt>
<wgt id='1510'> +7.5736825e+01 </wgt>
<wgt id='1511'> +7.5508234e+01 </wgt>
<wgt id='1512'> +7.5466788e+01 </wgt>
<wgt id='1513'> +7.5443001e+01 </wgt>
<wgt id='1514'> +7.5443540e+01 </wgt>
<wgt id='1515'> +7.5501108e+01 </wgt>
<wgt id='1516'> +7.5463451e+01 </wgt>
<wgt id='1517'> +7.5477793e+01 </wgt>
<wgt id='1518'> +7.5291570e+01 </wgt>
<wgt id='1519'> +7.5356736e+01 </wgt>
<wgt id='1520'> +7.5434471e+01 </wgt>
<wgt id='1521'> +7.5495629e+01 </wgt>
<wgt id='1522'> +7.5405003e+01 </wgt>
<wgt id='1523'> +7.5492203e+01 </wgt>
<wgt id='1524'> +7.5570634e+01 </wgt>
<wgt id='1525'> +7.5482831e+01 </wgt>
<wgt id='1526'> +7.5410816e+01 </wgt>
<wgt id='1527'> +7.5471095e+01 </wgt>
<wgt id='1528'> +7.5482651e+01 </wgt>
<wgt id='1529'> +7.5454479e+01 </wgt>
<wgt id='1530'> +7.5474323e+01 </wgt>
<wgt id='1531'> +7.5445053e+01 </wgt>
<wgt id='1532'> +7.5439264e+01 </wgt>
<wgt id='1533'> +7.5464995e+01 </wgt>
<wgt id='1534'> +7.5506096e+01 </wgt>
<wgt id='1535'> +7.5528972e+01 </wgt>
<wgt id='1536'> +7.5482360e+01 </wgt>
<wgt id='1537'> +7.5428534e+01 </wgt>
<wgt id='1538'> +7.5458094e+01 </wgt>
<wgt id='1539'> +7.5499371e+01 </wgt>
<wgt id='1540'> +7.5499217e+01 </wgt>
<wgt id='1541'> +7.5429533e+01 </wgt>
<wgt id='1542'> +7.5478297e+01 </wgt>
<wgt id='1543'> +7.5443990e+01 </wgt>
<wgt id='1544'> +7.5483113e+01 </wgt>
<wgt id='1545'> +7.5518885e+01 </wgt>
<wgt id='1546'> +7.5465168e+01 </wgt>
<wgt id='1547'> +7.5504781e+01 </wgt>
<wgt id='1548'> +7.5458668e+01 </wgt>
<wgt id='1549'> +7.5484398e+01 </wgt>
<wgt id='1550'> +7.5505687e+01 </wgt>
<wgt id='1551'> +7.5497812e+01 </wgt>
<wgt id='1552'> +7.5524335e+01 </wgt>
<wgt id='1553'> +7.5502940e+01 </wgt>
<wgt id='1554'> +7.5467633e+01 </wgt>
<wgt id='1555'> +7.5469028e+01 </wgt>
<wgt id='1556'> +7.5469080e+01 </wgt>
<wgt id='1557'> +7.5453999e+01 </wgt>
<wgt id='1558'> +7.5490388e+01 </wgt>
<wgt id='1559'> +7.5466299e+01 </wgt>
<wgt id='1560'> +7.5464454e+01 </wgt>
<wgt id='1561'> +7.5458612e+01 </wgt>
<wgt id='1562'> +7.5480895e+01 </wgt>
<wgt id='1563'> +7.5468214e+01 </wgt>
<wgt id='1564'> +7.5487050e+01 </wgt>
<wgt id='1565'> +7.5497779e+01 </wgt>
<wgt id='1566'> +7.5492254e+01 </wgt>
<wgt id='1567'> +7.4394556e+01 </wgt>
<wgt id='1568'> +7.6446755e+01 </wgt>
<wgt id='1569'> +7.6165067e+01 </wgt>
<wgt id='1570'> +7.6407590e+01 </wgt>
<wgt id='1571'> +7.6162822e+01 </wgt>
<wgt id='1572'> +7.6100145e+01 </wgt>
<wgt id='1573'> +7.6531683e+01 </wgt>
<wgt id='1574'> +7.6887145e+01 </wgt>
<wgt id='1575'> +7.6140162e+01 </wgt>
<wgt id='1576'> +7.5788419e+01 </wgt>
<wgt id='1577'> +7.6046824e+01 </wgt>
<wgt id='1578'> +7.6096107e+01 </wgt>
<wgt id='1579'> +7.6031186e+01 </wgt>
<wgt id='1580'> +7.6613883e+01 </wgt>
<wgt id='1581'> +7.6269338e+01 </wgt>
<wgt id='1582'> +7.5857160e+01 </wgt>
<wgt id='1583'> +7.5958285e+01 </wgt>
<wgt id='1584'> +7.6537727e+01 </wgt>
<wgt id='1585'> +7.6438241e+01 </wgt>
<wgt id='1586'> +7.5898999e+01 </wgt>
<wgt id='1587'> +7.6455171e+01 </wgt>
<wgt id='1588'> +7.5516619e+01 </wgt>
<wgt id='1589'> +7.6427297e+01 </wgt>
<wgt id='1590'> +7.6196548e+01 </wgt>
<wgt id='1591'> +7.5733851e+01 </wgt>
<wgt id='1592'> +7.5945990e+01 </wgt>
<wgt id='1593'> +7.6404687e+01 </wgt>
<wgt id='1594'> +7.6242233e+01 </wgt>
<wgt id='1595'> +7.5999306e+01 </wgt>
<wgt id='1596'> +7.6115474e+01 </wgt>
<wgt id='1597'> +7.6175066e+01 </wgt>
<wgt id='1598'> +7.6128077e+01 </wgt>
<wgt id='1599'> +7.6281498e+01 </wgt>
<wgt id='1600'> +7.6214534e+01 </wgt>
<wgt id='1601'> +7.6359641e+01 </wgt>
<wgt id='1602'> +7.6546463e+01 </wgt>
<wgt id='1603'> +7.6052752e+01 </wgt>
<wgt id='1604'> +7.6680349e+01 </wgt>
<wgt id='1605'> +7.5595018e+01 </wgt>
<wgt id='1606'> +7.6371873e+01 </wgt>
<wgt id='1607'> +7.6015969e+01 </wgt>
<wgt id='1608'> +7.5921762e+01 </wgt>
<wgt id='1609'> +7.5976113e+01 </wgt>
<wgt id='1610'> +7.6154217e+01 </wgt>
<wgt id='1611'> +7.6095234e+01 </wgt>
<wgt id='1612'> +7.6075483e+01 </wgt>
<wgt id='1613'> +7.6343389e+01 </wgt>
<wgt id='1614'> +7.6233068e+01 </wgt>
<wgt id='1615'> +7.6135286e+01 </wgt>
<wgt id='1616'> +7.6249638e+01 </wgt>
<wgt id='1617'> +7.6242429e+01 </wgt>
<wgt id='1618'> +7.6144100e+01 </wgt>
<wgt id='1619'> +7.6151745e+01 </wgt>
<wgt id='1620'> +7.6183120e+01 </wgt>
<wgt id='1621'> +7.6249069e+01 </wgt>
<wgt id='1622'> +7.6120811e+01 </wgt>
<wgt id='1623'> +7.6105266e+01 </wgt>
<wgt id='1624'> +7.6133749e+01 </wgt>
<wgt id='1625'> +7.6310816e+01 </wgt>
<wgt id='1626'> +7.6221584e+01 </wgt>
<wgt id='1627'> +7.6105750e+01 </wgt>
<wgt id='1628'> +7.6082832e+01 </wgt>
<wgt id='1629'> +7.6174855e+01 </wgt>
<wgt id='1630'> +7.6155533e+01 </wgt>
<wgt id='1631'> +7.6205738e+01 </wgt>
<wgt id='1632'> +7.6153873e+01 </wgt>
<wgt id='1633'> +7.6150658e+01 </wgt>
<wgt id='1634'> +7.6177095e+01 </wgt>
<wgt id='1635'> +7.6195565e+01 </wgt>
<wgt id='1636'> +7.6211404e+01 </wgt>
<wgt id='1637'> +7.6151634e+01 </wgt>
<wgt id='1638'> +7.6245137e+01 </wgt>
<wgt id='1639'> +7.6209027e+01 </wgt>
<wgt id='1640'> +7.6160485e+01 </wgt>
<wgt id='1641'> +7.6216791e+01 </wgt>
<wgt id='1642'> +7.6185382e+01 </wgt>
<wgt id='1643'> +7.6186401e+01 </wgt>
<wgt id='1644'> +7.6138489e+01 </wgt>
<wgt id='1645'> +7.6153434e+01 </wgt>
<wgt id='1646'> +7.6160708e+01 </wgt>
<wgt id='1647'> +7.6177755e+01 </wgt>
<wgt id='1648'> +7.6147313e+01 </wgt>
<wgt id='1649'> +7.6233323e+01 </wgt>
<wgt id='1650'> +7.6178573e+01 </wgt>
<wgt id='1651'> +7.6192727e+01 </wgt>
<wgt id='1652'> +7.6158701e+01 </wgt>
<wgt id='1653'> +7.6139817e+01 </wgt>
<wgt id='1654'> +7.6137601e+01 </wgt>
<wgt id='1655'> +7.6189494e+01 </wgt>
<wgt id='1656'> +7.6109111e+01 </wgt>
<wgt id='1657'> +7.6151865e+01 </wgt>
<wgt id='1658'> +7.6172748e+01 </wgt>
<wgt id='1659'> +7.6148507e+01 </wgt>
<wgt id='1660'> +7.6166652e+01 </wgt>
<wgt id='1661'> +7.6170124e+01 </wgt>
<wgt id='1662'> +7.6144221e+01 </wgt>
<wgt id='1663'> +7.6148963e+01 </wgt>
<wgt id='1664'> +7.6153659e+01 </wgt>
<wgt id='1665'> +7.6139008e+01 </wgt>
<wgt id='1666'> +7.6169914e+01 </wgt>
<wgt id='1667'> +7.6172692e+01 </wgt>
<wgt id='1668'> +7.6143827e+01 </wgt>
<wgt id='1669'> +7.6168076e+01 </wgt>
<wgt id='1670'> +7.5081741e+01 </wgt>
<wgt id='1671'> +7.7250171e+01 </wgt>
<wgt id='1672'> +7.5491214e+01 </wgt>
<wgt id='1673'> +7.5722229e+01 </wgt>
<wgt id='1674'> +7.4471090e+01 </wgt>
<wgt id='1675'> +7.5491505e+01 </wgt>
<wgt id='1676'> +7.5863422e+01 </wgt>
<wgt id='1677'> +7.6112461e+01 </wgt>
<wgt id='1678'> +7.5552089e+01 </wgt>
<wgt id='1679'> +7.5531193e+01 </wgt>
<wgt id='1680'> +7.5635665e+01 </wgt>
<wgt id='1681'> +7.5461456e+01 </wgt>
<wgt id='1682'> +7.5686279e+01 </wgt>
<wgt id='1683'> +7.5049856e+01 </wgt>
<wgt id='1684'> +7.5418648e+01 </wgt>
<wgt id='1685'> +7.5551487e+01 </wgt>
<wgt id='1686'> +7.5189038e+01 </wgt>
<wgt id='1687'> +7.5487686e+01 </wgt>
<wgt id='1688'> +7.5457134e+01 </wgt>
<wgt id='1689'> +7.5727497e+01 </wgt>
<wgt id='1690'> +7.5524932e+01 </wgt>
<wgt id='1691'> +7.5444142e+01 </wgt>
<wgt id='1692'> +7.5679634e+01 </wgt>
<wgt id='1693'> +7.5537249e+01 </wgt>
<wgt id='1694'> +7.5452700e+01 </wgt>
<wgt id='1695'> +7.5584671e+01 </wgt>
<wgt id='1696'> +7.5528007e+01 </wgt>
<wgt id='1697'> +7.5530037e+01 </wgt>
<wgt id='1698'> +7.5512468e+01 </wgt>
<wgt id='1699'> +7.5799966e+01 </wgt>
<wgt id='1700'> +7.6014988e+01 </wgt>
<wgt id='1701'> +7.5443968e+01 </wgt>
<wgt id='1702'> +7.5448138e+01 </wgt>
<wgt id='1703'> +7.4394556e+01 </wgt>
<wgt id='1704'> +7.6446755e+01 </wgt>
<wgt id='1705'> +7.6167271e+01 </wgt>
<wgt id='1706'> +7.5729307e+01 </wgt>
<wgt id='1707'> +7.6865804e+01 </wgt>
<wgt id='1708'> +7.6095771e+01 </wgt>
<wgt id='1709'> +7.5725466e+01 </wgt>
<wgt id='1710'> +7.5871982e+01 </wgt>
<wgt id='1711'> +7.6216990e+01 </wgt>
<wgt id='1712'> +7.6058441e+01 </wgt>
<wgt id='1713'> +7.6325023e+01 </wgt>
<wgt id='1714'> +7.5608982e+01 </wgt>
<wgt id='1715'> +7.5764470e+01 </wgt>
<wgt id='1716'> +7.6462019e+01 </wgt>
<wgt id='1717'> +7.6091224e+01 </wgt>
<wgt id='1718'> +7.6190013e+01 </wgt>
<wgt id='1719'> +7.6103470e+01 </wgt>
<wgt id='1720'> +7.6185491e+01 </wgt>
<wgt id='1721'> +7.6279983e+01 </wgt>
<wgt id='1722'> +7.6309227e+01 </wgt>
<wgt id='1723'> +7.6236271e+01 </wgt>
<wgt id='1724'> +7.6265565e+01 </wgt>
<wgt id='1725'> +7.5653938e+01 </wgt>
<wgt id='1726'> +7.5892768e+01 </wgt>
<wgt id='1727'> +7.6887320e+01 </wgt>
<wgt id='1728'> +7.6192575e+01 </wgt>
<wgt id='1729'> +7.6085440e+01 </wgt>
<wgt id='1730'> +7.6067397e+01 </wgt>
<wgt id='1731'> +7.6280868e+01 </wgt>
<wgt id='1732'> +7.6070520e+01 </wgt>
<wgt id='1733'> +7.5922045e+01 </wgt>
<wgt id='1734'> +7.6179680e+01 </wgt>
<wgt id='1735'> +7.6021859e+01 </wgt>
<wgt id='1736'> +7.5081741e+01 </wgt>
<wgt id='1737'> +7.7250171e+01 </wgt>
<wgt id='1738'> +7.2460056e+01 </wgt>
<wgt id='1739'> +7.2474550e+01 </wgt>
<wgt id='1740'> +7.2445567e+01 </wgt>
<wgt id='1741'> +7.2422780e+01 </wgt>
<wgt id='1742'> +7.2497146e+01 </wgt>
<wgt id='1743'> +7.2595008e+01 </wgt>
<wgt id='1744'> +7.2325479e+01 </wgt>
<wgt id='1745'> +7.2570385e+01 </wgt>
<wgt id='1746'> +7.2349465e+01 </wgt>
<wgt id='1747'> +7.2749201e+01 </wgt>
<wgt id='1748'> +7.2158238e+01 </wgt>
<wgt id='1749'> +7.2216900e+01 </wgt>
<wgt id='1750'> +7.2737821e+01 </wgt>
<wgt id='1751'> +7.2308989e+01 </wgt>
<wgt id='1752'> +7.2613064e+01 </wgt>
<wgt id='1753'> +7.2505349e+01 </wgt>
<wgt id='1754'> +7.2293433e+01 </wgt>
<wgt id='1755'> +7.2721662e+01 </wgt>
<wgt id='1756'> +7.2282103e+01 </wgt>
<wgt id='1757'> +7.2201082e+01 </wgt>
<wgt id='1758'> +7.2626423e+01 </wgt>
<wgt id='1759'> +7.2185525e+01 </wgt>
<wgt id='1760'> +7.2694141e+01 </wgt>
<wgt id='1761'> +7.2559333e+01 </wgt>
<wgt id='1762'> +7.2115924e+01 </wgt>
<wgt id='1763'> +7.2435611e+01 </wgt>
<wgt id='1764'> +7.2518820e+01 </wgt>
<wgt id='1765'> +7.3116566e+01 </wgt>
<wgt id='1766'> +7.1850600e+01 </wgt>
<wgt id='1767'> +7.2460056e+01 </wgt>
<wgt id='1768'> +7.4300454e+01 </wgt>
<wgt id='1769'> +7.0328214e+01 </wgt>
<wgt id='1770'> +7.6177259e+01 </wgt>
<wgt id='1771'> +7.3849431e+01 </wgt>
<wgt id='1772'> +7.2593026e+01 </wgt>
<wgt id='1773'> +7.2609022e+01 </wgt>
<wgt id='1774'> +7.2417289e+01 </wgt>
<wgt id='1775'> +7.2502642e+01 </wgt>
<wgt id='1776'> +7.2388789e+01 </wgt>
<wgt id='1777'> +7.2501077e+01 </wgt>
<wgt id='1778'> +7.2089022e+01 </wgt>
<wgt id='1779'> +7.2742715e+01 </wgt>
<wgt id='1780'> +7.0201945e+01 </wgt>
<wgt id='1781'> +7.2198169e+01 </wgt>
<wgt id='1782'> +7.2215107e+01 </wgt>
<wgt id='1783'> +7.2162771e+01 </wgt>
<wgt id='1784'> +7.2085913e+01 </wgt>
<wgt id='1785'> +7.2292138e+01 </wgt>
<wgt id='1786'> +7.2271800e+01 </wgt>
<wgt id='1787'> +7.2106116e+01 </wgt>
<wgt id='1788'> +7.2260639e+01 </wgt>
<wgt id='1789'> +7.2116808e+01 </wgt>
<wgt id='1790'> +7.2201599e+01 </wgt>
<wgt id='1791'> +7.2180021e+01 </wgt>
<wgt id='1792'> +7.2642583e+01 </wgt>
<wgt id='1793'> +7.1731924e+01 </wgt>
<wgt id='1794'> +7.2009957e+01 </wgt>
<wgt id='1795'> +7.2362285e+01 </wgt>
<wgt id='1796'> +7.2088076e+01 </wgt>
<wgt id='1797'> +7.2133786e+01 </wgt>
<wgt id='1798'> +7.2230647e+01 </wgt>
<wgt id='1799'> +7.2141501e+01 </wgt>
<wgt id='1800'> +7.2057117e+01 </wgt>
<wgt id='1801'> +7.2296867e+01 </wgt>
<wgt id='1802'> +7.2302750e+01 </wgt>
<wgt id='1803'> +7.2039758e+01 </wgt>
<wgt id='1804'> +7.2486675e+01 </wgt>
<wgt id='1805'> +7.1908780e+01 </wgt>
<wgt id='1806'> +7.2595022e+01 </wgt>
<wgt id='1807'> +7.1723141e+01 </wgt>
<wgt id='1808'> +7.2807416e+01 </wgt>
<wgt id='1809'> +7.1627467e+01 </wgt>
<wgt id='1810'> +7.2162521e+01 </wgt>
<wgt id='1811'> +7.4212386e+01 </wgt>
<wgt id='1812'> +6.9688236e+01 </wgt>
<wgt id='1813'> +7.6004561e+01 </wgt>
<wgt id='1814'> +7.3276180e+01 </wgt>
<wgt id='1815'> +7.2888462e+01 </wgt>
<wgt id='1816'> +7.1796104e+01 </wgt>
<wgt id='1817'> +7.2066837e+01 </wgt>
<wgt id='1818'> +7.2091593e+01 </wgt>
<wgt id='1819'> +7.2449242e+01 </wgt>
<wgt id='1820'> +7.2844958e+01 </wgt>
<wgt id='1821'> +7.2655956e+01 </wgt>
<wgt id='1822'> +7.1800435e+01 </wgt>
<wgt id='1823'> +7.1863768e+01 </wgt>
<wgt id='1824'> +7.4895777e+01 </wgt>
<wgt id='1825'> +7.4875196e+01 </wgt>
<wgt id='1826'> +7.4854361e+01 </wgt>
<wgt id='1827'> +7.4833464e+01 </wgt>
<wgt id='1828'> +7.4812880e+01 </wgt>
<wgt id='1829'> +7.4791959e+01 </wgt>
<wgt id='1830'> +7.4771150e+01 </wgt>
<wgt id='1831'> +7.4750597e+01 </wgt>
<wgt id='1832'> +7.4729660e+01 </wgt>
<wgt id='1833'> +7.4708853e+01 </wgt>
<wgt id='1834'> +7.4688185e+01 </wgt>
<wgt id='1835'> +7.4667411e+01 </wgt>
<wgt id='1836'> +7.4646591e+01 </wgt>
<wgt id='1837'> +7.4625916e+01 </wgt>
<wgt id='1838'> +7.4605130e+01 </wgt>
<wgt id='1839'> +7.4584220e+01 </wgt>
<wgt id='1840'> +7.4563692e+01 </wgt>
<wgt id='1841'> +7.4542887e+01 </wgt>
<wgt id='1842'> +7.4521981e+01 </wgt>
<wgt id='1843'> +7.4501428e+01 </wgt>
<wgt id='1844'> +7.4480551e+01 </wgt>
<wgt id='1845'> +7.4459769e+01 </wgt>
<wgt id='1846'> +7.4439213e+01 </wgt>
<wgt id='1847'> +7.4418318e+01 </wgt>
<wgt id='1848'> +7.4397541e+01 </wgt>
<wgt id='1849'> +7.4376922e+01 </wgt>
<wgt id='1850'> +7.4356210e+01 </wgt>
<wgt id='1851'> +7.4335421e+01 </wgt>
<wgt id='1852'> +7.4314777e+01 </wgt>
<wgt id='1853'> +7.4294040e+01 </wgt>
<wgt id='1854'> +7.4273405e+01 </wgt>
<wgt id='1855'> +7.5647123e+01 </wgt>
<wgt id='1856'> +7.5884725e+01 </wgt>
<wgt id='1857'> +7.5642369e+01 </wgt>
<wgt id='1858'> +7.5584495e+01 </wgt>
<wgt id='1859'> +7.6011327e+01 </wgt>
<wgt id='1860'> +7.6364956e+01 </wgt>
<wgt id='1861'> +7.5627548e+01 </wgt>
<wgt id='1862'> +7.5277601e+01 </wgt>
<wgt id='1863'> +7.5530400e+01 </wgt>
<wgt id='1864'> +7.5579075e+01 </wgt>
<wgt id='1865'> +7.5514467e+01 </wgt>
<wgt id='1866'> +7.6096594e+01 </wgt>
<wgt id='1867'> +7.5751345e+01 </wgt>
<wgt id='1868'> +7.5347444e+01 </wgt>
<wgt id='1869'> +7.5440090e+01 </wgt>
<wgt id='1870'> +7.6009930e+01 </wgt>
<wgt id='1871'> +7.5919328e+01 </wgt>
<wgt id='1872'> +7.5380212e+01 </wgt>
<wgt id='1873'> +7.5935570e+01 </wgt>
<wgt id='1874'> +7.5007472e+01 </wgt>
<wgt id='1875'> +7.5911406e+01 </wgt>
<wgt id='1876'> +7.5676742e+01 </wgt>
<wgt id='1877'> +7.5219000e+01 </wgt>
<wgt id='1878'> +7.5427536e+01 </wgt>
<wgt id='1879'> +7.5880839e+01 </wgt>
<wgt id='1880'> +7.5719844e+01 </wgt>
<wgt id='1881'> +7.5479694e+01 </wgt>
<wgt id='1882'> +7.5602627e+01 </wgt>
<wgt id='1883'> +7.5657877e+01 </wgt>
<wgt id='1884'> +7.5608788e+01 </wgt>
<wgt id='1885'> +7.5763946e+01 </wgt>
<wgt id='1886'> +7.5699372e+01 </wgt>
<wgt id='1887'> +7.5838886e+01 </wgt>
<wgt id='1888'> +7.6024806e+01 </wgt>
<wgt id='1889'> +7.5536036e+01 </wgt>
<wgt id='1890'> +7.6158190e+01 </wgt>
<wgt id='1891'> +7.5080670e+01 </wgt>
<wgt id='1892'> +7.5853116e+01 </wgt>
<wgt id='1893'> +7.5498081e+01 </wgt>
<wgt id='1894'> +7.5402944e+01 </wgt>
<wgt id='1895'> +7.5459179e+01 </wgt>
<wgt id='1896'> +7.5633783e+01 </wgt>
<wgt id='1897'> +7.5577294e+01 </wgt>
<wgt id='1898'> +7.5560037e+01 </wgt>
<wgt id='1899'> +7.5824770e+01 </wgt>
<wgt id='1900'> +7.5713106e+01 </wgt>
<wgt id='1901'> +7.5619335e+01 </wgt>
<wgt id='1902'> +7.5729747e+01 </wgt>
<wgt id='1903'> +7.5723843e+01 </wgt>
<wgt id='1904'> +7.5627546e+01 </wgt>
<wgt id='1905'> +7.5634300e+01 </wgt>
<wgt id='1906'> +7.5664616e+01 </wgt>
<wgt id='1907'> +7.5729908e+01 </wgt>
<wgt id='1908'> +7.5603915e+01 </wgt>
<wgt id='1909'> +7.5589047e+01 </wgt>
<wgt id='1910'> +7.5615965e+01 </wgt>
<wgt id='1911'> +7.5791374e+01 </wgt>
<wgt id='1912'> +7.5701772e+01 </wgt>
<wgt id='1913'> +7.5589355e+01 </wgt>
<wgt id='1914'> +7.5566221e+01 </wgt>
<wgt id='1915'> +7.5656650e+01 </wgt>
<wgt id='1916'> +7.5637542e+01 </wgt>
<wgt id='1917'> +7.5689478e+01 </wgt>
<wgt id='1918'> +7.5635432e+01 </wgt>
<wgt id='1919'> +7.5634726e+01 </wgt>
<wgt id='1920'> +7.5659343e+01 </wgt>
<wgt id='1921'> +7.5678160e+01 </wgt>
<wgt id='1922'> +7.5693145e+01 </wgt>
<wgt id='1923'> +7.5634402e+01 </wgt>
<wgt id='1924'> +7.5725312e+01 </wgt>
<wgt id='1925'> +7.5690190e+01 </wgt>
<wgt id='1926'> +7.5643928e+01 </wgt>
<wgt id='1927'> +7.5698153e+01 </wgt>
<wgt id='1928'> +7.5666361e+01 </wgt>
<wgt id='1929'> +7.5669859e+01 </wgt>
<wgt id='1930'> +7.5621370e+01 </wgt>
<wgt id='1931'> +7.5637053e+01 </wgt>
<wgt id='1932'> +7.5643064e+01 </wgt>
<wgt id='1933'> +7.5660560e+01 </wgt>
<wgt id='1934'> +7.5629253e+01 </wgt>
<wgt id='1935'> +7.5713276e+01 </wgt>
<wgt id='1936'> +7.5660413e+01 </wgt>
<wgt id='1937'> +7.5675146e+01 </wgt>
<wgt id='1938'> +7.5640268e+01 </wgt>
<wgt id='1939'> +7.5621863e+01 </wgt>
<wgt id='1940'> +7.5619417e+01 </wgt>
<wgt id='1941'> +7.5671028e+01 </wgt>
<wgt id='1942'> +7.5591681e+01 </wgt>
<wgt id='1943'> +7.5632735e+01 </wgt>
<wgt id='1944'> +7.5653643e+01 </wgt>
<wgt id='1945'> +7.5630671e+01 </wgt>
<wgt id='1946'> +7.5647950e+01 </wgt>
<wgt id='1947'> +7.5652415e+01 </wgt>
<wgt id='1948'> +7.5626453e+01 </wgt>
<wgt id='1949'> +7.5630691e+01 </wgt>
<wgt id='1950'> +7.5636892e+01 </wgt>
<wgt id='1951'> +7.5621297e+01 </wgt>
<wgt id='1952'> +7.5651741e+01 </wgt>
<wgt id='1953'> +7.5653809e+01 </wgt>
<wgt id='1954'> +7.5627278e+01 </wgt>
<wgt id='1955'> +7.5650657e+01 </wgt>
<wgt id='1956'> +7.5646600e+01 </wgt>
<wgt id='1957'> +7.5649992e+01 </wgt>
<wgt id='1958'> +7.5647676e+01 </wgt>
<wgt id='1959'> +7.5647767e+01 </wgt>
<wgt id='1960'> +7.5648736e+01 </wgt>
<wgt id='1961'> +7.5647358e+01 </wgt>
<wgt id='1962'> +7.5650603e+01 </wgt>
</rwgt>
</event>
<event npLO=" -1 " npNLO=" 1 ">
 8      1 +1.5146096e+02 3.00236260e+01 7.54677110e-03 1.36340260e-01
       21 -1    0    0  501  502 +0.0000000000e+00 +0.0000000000e+00 +7.2516358000e+01 7.2516358000e+01 0.0000000000e+00 0.0000e+00 9.0000e+00
       21 -1    0    0  503  501 +0.0000000000e+00 +0.0000000000e+00 -1.0862979000e+02 1.0862979000e+02 0.0000000000e+00 0.0000e+00 9.0000e+00
       23  2    1    2    0    0 +3.7246884000e+01 -4.5389117000e+00 -5.2803323000e+01 1.1074169000e+02 8.9819818000e+01 0.0000e+00 0.0000e+00
       11  1    3    3    0    0 +4.4261110000e+00 -1.9279980000e+01 -3.6861515000e+01 4.1833949000e+01 0.0000000000e+00 0.0000e+00 9.0000e+00
      -11  1    3    3    0    0 +2.0219265000e+01 +2.6499070000e+01 +1.2543628000e+01 3.5614070000e+01 0.0000000000e+00 0.0000e+00 9.0000e+00
       22  1    3    3    0    0 +1.2601508000e+01 -1.1758002000e+01 -2.8485437000e+01 3.3293674000e+01 0.0000000000e+00 0.0000e+00 9.0000e+00
        5  1    1    2  503    0 -3.1974788000e+01 +2.5002314000e+01 +2.5030039000e+01 4.7686535000e+01 0.0000000000e+00 0.0000e+00 9.0000e+00
       -5  1    1    2    0  502 -5.2720958000e+00 -2.0463402000e+01 -8.3401483000e+00 2.2717920000e+01 0.0000000000e+00 0.0000e+00 9.0000e+00
#aMCatNLO 2  0  0  0  0 0.00000000E+00 0.00000000E+00 -9  7  0 0.00000000E+00 0.00000000E+00 0.00000000E+00 0.00000000E+00 0.00000000E+00
<rwgt>
<wgt id='1001'> +1.5146000e+02 </wgt>
<wgt id='1002'> +1.5146000e+02 </wgt>
<wgt id='1003'> +1.3799000e+02 </wgt>
<wgt id='1004'> +1.5159000e+02 </wgt>
<wgt id='1005'> +1.4993000e+02 </wgt>
<wgt id='1006'> +1.5019000e+02 </wgt>
<wgt id='1007'> +1.3032000e+02 </wgt>
<wgt id='1008'> +1.5210000e+02 </wgt>
<wgt id='1009'> +1.5376000e+02 </wgt>
<wgt id='1010'> +1.5055000e+02 </wgt>
<wgt id='1011'> +1.5139000e+02 </wgt>
<wgt id='1012'> +1.4547000e+02 </wgt>
<wgt id='1013'> +1.4691000e+02 </wgt>
<wgt id='1014'> +1.5459000e+02 </wgt>
<wgt id='1015'> +1.5433000e+02 </wgt>
<wgt id='1016'> +1.4599000e+02 </wgt>
<wgt id='1017'> +1.5100000e+02 </wgt>
<wgt id='1018'> +1.5461000e+02 </wgt>
<wgt id='1019'> +1.4870000e+02 </wgt>
<wgt id='1020'> +1.5057000e+02 </wgt>
<wgt id='1021'> +1.5404000e+02 </wgt>
<wgt id='1022'> +1.5412000e+02 </wgt>
<wgt id='1023'> +1.5200000e+02 </wgt>
<wgt id='1024'> +1.4975000e+02 </wgt>
<wgt id='1025'> +1.6364000e+02 </wgt>
<wgt id='1026'> +1.4990000e+02 </wgt>
<wgt id='1027'> +1.5409000e+02 </wgt>
<wgt id='1028'> +1.4878000e+02 </wgt>
<wgt id='1029'> +1.5038000e+02 </wgt>
<wgt id='1030'> +1.5071000e+02 </wgt>
<wgt id='1031'> +1.4894000e+02 </wgt>
<wgt id='1032'> +1.5455000e+02 </wgt>
<wgt id='1033'> +1.5051000e+02 </wgt>
<wgt id='1034'> +1.4657000e+02 </wgt>
<wgt id='1035'> +1.5574000e+02 </wgt>
<wgt id='1036'> +1.5245000e+02 </wgt>
<wgt id='1037'> +1.5554000e+02 </wgt>
<wgt id='1038'> +1.5811000e+02 </wgt>
<wgt id='1039'> +1.5322000e+02 </wgt>
<wgt id='1040'> +1.5004000e+02 </wgt>
<wgt id='1041'> +1.4558000e+02 </wgt>
<wgt id='1042'> +1.5409000e+02 </wgt>
<wgt id='1043'> +1.5173000e+02 </wgt>
<wgt id='1044'> +1.5405000e+02 </wgt>
<wgt id='1045'> +1.5335000e+02 </wgt>
<wgt id='1046'> +1.4981000e+02 </wgt>
<wgt id='1047'> +1.5425000e+02 </wgt>
<wgt id='1048'> +1.5288000e+02 </wgt>
<wgt id='1049'> +1.4921000e+02 </wgt>
<wgt id='1050'> +1.4884000e+02 </wgt>
<wgt id='1051'> +1.5332000e+02 </wgt>
<wgt id='1052'> +1.5222000e+02 </wgt>
<wgt id='1053'> +1.5173000e+02 </wgt>
<wgt id='1054'> +1.5065000e+02 </wgt>
<wgt id='1055'> +1.5424000e+02 </wgt>
<wgt id='1056'> +1.5152000e+02 </wgt>
<wgt id='1057'> +1.5266000e+02 </wgt>
<wgt id='1058'> +1.4687000e+02 </wgt>
<wgt id='1059'> +1.5968000e+02 </wgt>
<wgt id='1060'> +1.5006000e+02 </wgt>
<wgt id='1061'> +1.5293000e+02 </wgt>
<wgt id='1062'> +1.5146000e+02 </wgt>
<wgt id='1063'> +1.5434000e+02 </wgt>
<wgt id='1064'> +1.5153000e+02 </wgt>
<wgt id='1065'> +1.5537000e+02 </wgt>
<wgt id='1066'> +1.4884000e+02 </wgt>
<wgt id='1067'> +1.5496000e+02 </wgt>
<wgt id='1068'> +1.5151000e+02 </wgt>
<wgt id='1069'> +1.5818000e+02 </wgt>
<wgt id='1070'> +1.4956000e+02 </wgt>
<wgt id='1071'> +1.4752000e+02 </wgt>
<wgt id='1072'> +1.5220000e+02 </wgt>
<wgt id='1073'> +1.5643000e+02 </wgt>
<wgt id='1074'> +1.5019000e+02 </wgt>
<wgt id='1075'> +1.3735000e+02 </wgt>
<wgt id='1076'> +1.5238000e+02 </wgt>
<wgt id='1077'> +1.5025000e+02 </wgt>
<wgt id='1078'> +1.4626000e+02 </wgt>
<wgt id='1079'> +1.5218000e+02 </wgt>
<wgt id='1080'> +1.5787000e+02 </wgt>
<wgt id='1081'> +1.5130000e+02 </wgt>
<wgt id='1082'> +1.5251000e+02 </wgt>
<wgt id='1083'> +1.5226000e+02 </wgt>
<wgt id='1084'> +1.4950000e+02 </wgt>
<wgt id='1085'> +1.5274000e+02 </wgt>
<wgt id='1086'> +1.5270000e+02 </wgt>
<wgt id='1087'> +1.4657000e+02 </wgt>
<wgt id='1088'> +1.5079000e+02 </wgt>
<wgt id='1089'> +1.5040000e+02 </wgt>
<wgt id='1090'> +1.5211000e+02 </wgt>
<wgt id='1091'> +1.5563000e+02 </wgt>
<wgt id='1092'> +1.5006000e+02 </wgt>
<wgt id='1093'> +1.4751000e+02 </wgt>
<wgt id='1094'> +1.5658000e+02 </wgt>
<wgt id='1095'> +1.5056000e+02 </wgt>
<wgt id='1096'> +1.5482000e+02 </wgt>
<wgt id='1097'> +1.4821000e+02 </wgt>
<wgt id='1098'> +1.5465000e+02 </wgt>
<wgt id='1099'> +1.5301000e+02 </wgt>
<wgt id='1100'> +1.5918000e+02 </wgt>
<wgt id='1101'> +1.5729000e+02 </wgt>
<wgt id='1102'> +1.4974000e+02 </wgt>
<wgt id='1103'> +1.4945000e+02 </wgt>
<wgt id='1104'> +1.5234000e+02 </wgt>
<wgt id='1105'> +1.5146096e+02 </wgt>
<wgt id='1106'> +6.0243570e+01 </wgt>
<wgt id='1107'> +9.8193010e+01 </wgt>
<wgt id='1108'> +7.8760101e+01 </wgt>
<wgt id='1109'> +6.2653632e+01 </wgt>
<wgt id='1110'> +1.0212125e+02 </wgt>
<wgt id='1111'> +7.0986785e+01 </wgt>
<wgt id='1112'> +5.6469962e+01 </wgt>
<wgt id='1113'> +9.2042281e+01 </wgt>
<wgt id='1114'> +7.6181458e+01 </wgt>
<wgt id='1115'> +7.3581354e+01 </wgt>
<wgt id='1116'> +7.5335151e+01 </wgt>
<wgt id='1117'> +7.6372110e+01 </wgt>
<wgt id='1118'> +7.6705839e+01 </wgt>
<wgt id='1119'> +7.7133481e+01 </wgt>
<wgt id='1120'> +7.6229795e+01 </wgt>
<wgt id='1121'> +7.5279325e+01 </wgt>
<wgt id='1122'> +7.5642199e+01 </wgt>
<wgt id='1123'> +7.7642684e+01 </wgt>
<wgt id='1124'> +7.7752436e+01 </wgt>
<wgt id='1125'> +7.7282724e+01 </wgt>
<wgt id='1126'> +7.4100000e+01 </wgt>
<wgt id='1127'> +7.5875732e+01 </wgt>
<wgt id='1128'> +7.4429658e+01 </wgt>
<wgt id='1129'> +7.9374841e+01 </wgt>
<wgt id='1130'> +7.8342635e+01 </wgt>
<wgt id='1131'> +7.7948977e+01 </wgt>
<wgt id='1132'> +7.5132553e+01 </wgt>
<wgt id='1133'> +7.6632543e+01 </wgt>
<wgt id='1134'> +7.8147626e+01 </wgt>
<wgt id='1135'> +7.4409473e+01 </wgt>
<wgt id='1136'> +7.6591974e+01 </wgt>
<wgt id='1137'> +7.5840183e+01 </wgt>
<wgt id='1138'> +7.4904893e+01 </wgt>
<wgt id='1139'> +7.5209685e+01 </wgt>
<wgt id='1140'> +7.7028414e+01 </wgt>
<wgt id='1141'> +7.6814918e+01 </wgt>
<wgt id='1142'> +7.4354666e+01 </wgt>
<wgt id='1143'> +7.7747191e+01 </wgt>
<wgt id='1144'> +7.7478341e+01 </wgt>
<wgt id='1145'> +7.5672951e+01 </wgt>
<wgt id='1146'> +7.5458506e+01 </wgt>
<wgt id='1147'> +7.5401818e+01 </wgt>
<wgt id='1148'> +7.4464072e+01 </wgt>
<wgt id='1149'> +7.8762877e+01 </wgt>
<wgt id='1150'> +7.5825325e+01 </wgt>
<wgt id='1151'> +7.7223081e+01 </wgt>
<wgt id='1152'> +7.6436097e+01 </wgt>
<wgt id='1153'> +7.5960307e+01 </wgt>
<wgt id='1154'> +7.5877375e+01 </wgt>
<wgt id='1155'> +7.7576416e+01 </wgt>
<wgt id='1156'> +7.3175378e+01 </wgt>
<wgt id='1157'> +7.5815630e+01 </wgt>
<wgt id='1158'> +7.4417844e+01 </wgt>
<wgt id='1159'> +7.6769323e+01 </wgt>
<wgt id='1160'> +7.6767868e+01 </wgt>
<wgt id='1161'> +7.2642058e+01 </wgt>
<wgt id='1162'> +7.3944293e+01 </wgt>
<wgt id='1163'> +7.7209397e+01 </wgt>
<wgt id='1164'> +7.7388849e+01 </wgt>
<wgt id='1165'> +7.5156096e+01 </wgt>
<wgt id='1166'> +7.5344464e+01 </wgt>
<wgt id='1167'> +7.6498584e+01 </wgt>
<wgt id='1168'> +7.4379322e+01 </wgt>
<wgt id='1169'> +7.4748985e+01 </wgt>
<wgt id='1170'> +7.5598827e+01 </wgt>
<wgt id='1171'> +7.5696776e+01 </wgt>
<wgt id='1172'> +7.5353282e+01 </wgt>
<wgt id='1173'> +8.0318039e+01 </wgt>
<wgt id='1174'> +7.6238053e+01 </wgt>
<wgt id='1175'> +7.5610861e+01 </wgt>
<wgt id='1176'> +7.5589216e+01 </wgt>
<wgt id='1177'> +7.5969848e+01 </wgt>
<wgt id='1178'> +7.5410848e+01 </wgt>
<wgt id='1179'> +7.6014128e+01 </wgt>
<wgt id='1180'> +7.6095578e+01 </wgt>
<wgt id='1181'> +7.3541483e+01 </wgt>
<wgt id='1182'> +7.7888455e+01 </wgt>
<wgt id='1183'> +7.5079789e+01 </wgt>
<wgt id='1184'> +7.3428037e+01 </wgt>
<wgt id='1185'> +7.9021336e+01 </wgt>
<wgt id='1186'> +7.9093466e+01 </wgt>
<wgt id='1187'> +7.7779220e+01 </wgt>
<wgt id='1188'> +7.9301749e+01 </wgt>
<wgt id='1189'> +7.7358338e+01 </wgt>
<wgt id='1190'> +7.8485905e+01 </wgt>
<wgt id='1191'> +7.5574145e+01 </wgt>
<wgt id='1192'> +7.6619680e+01 </wgt>
<wgt id='1193'> +7.7257437e+01 </wgt>
<wgt id='1194'> +7.4338059e+01 </wgt>
<wgt id='1195'> +7.3739174e+01 </wgt>
<wgt id='1196'> +7.8342635e+01 </wgt>
<wgt id='1197'> +7.5520546e+01 </wgt>
<wgt id='1198'> +7.6975560e+01 </wgt>
<wgt id='1199'> +7.6579689e+01 </wgt>
<wgt id='1200'> +7.2224476e+01 </wgt>
<wgt id='1201'> +7.7331575e+01 </wgt>
<wgt id='1202'> +7.5836379e+01 </wgt>
<wgt id='1203'> +8.0125684e+01 </wgt>
<wgt id='1204'> +7.4065105e+01 </wgt>
<wgt id='1205'> +7.5250907e+01 </wgt>
<wgt id='1206'> +7.8658228e+01 </wgt>
<wgt id='1207'> +7.8200714e+01 </wgt>
<wgt id='1208'> +7.5689604e+01 </wgt>
<wgt id='1209'> +7.4345626e+01 </wgt>
<wgt id='1210'> +7.5672292e+01 </wgt>
<wgt id='1211'> +7.4496559e+01 </wgt>
<wgt id='1212'> +7.7115903e+01 </wgt>
<wgt id='1213'> +7.6664278e+01 </wgt>
<wgt id='1214'> +7.7253127e+01 </wgt>
<wgt id='1215'> +7.4998718e+01 </wgt>
<wgt id='1216'> +7.7007896e+01 </wgt>
<wgt id='1217'> +7.7303414e+01 </wgt>
<wgt id='1218'> +7.6708959e+01 </wgt>
<wgt id='1219'> +7.7335715e+01 </wgt>
<wgt id='1220'> +7.7204342e+01 </wgt>
<wgt id='1221'> +7.7473495e+01 </wgt>
<wgt id='1222'> +7.7123127e+01 </wgt>
<wgt id='1223'> +7.7292932e+01 </wgt>
<wgt id='1224'> +7.6745117e+01 </wgt>
<wgt id='1225'> +7.7070303e+01 </wgt>
<wgt id='1226'> +7.6655798e+01 </wgt>
<wgt id='1227'> +7.7138747e+01 </wgt>
<wgt id='1228'> +7.7651566e+01 </wgt>
<wgt id='1229'> +7.6319948e+01 </wgt>
<wgt id='1230'> +7.7431181e+01 </wgt>
<wgt id='1231'> +7.7289815e+01 </wgt>
<wgt id='1232'> +7.7062747e+01 </wgt>
<wgt id='1233'> +7.7464966e+01 </wgt>
<wgt id='1234'> +7.7153989e+01 </wgt>
<wgt id='1235'> +7.6594473e+01 </wgt>
<wgt id='1236'> +7.6909455e+01 </wgt>
<wgt id='1237'> +7.6723164e+01 </wgt>
<wgt id='1238'> +7.6983467e+01 </wgt>
<wgt id='1239'> +7.6906719e+01 </wgt>
<wgt id='1240'> +7.7012971e+01 </wgt>
<wgt id='1241'> +7.7024338e+01 </wgt>
<wgt id='1242'> +7.7001120e+01 </wgt>
<wgt id='1243'> +7.7049492e+01 </wgt>
<wgt id='1244'> +7.6999708e+01 </wgt>
<wgt id='1245'> +7.7042904e+01 </wgt>
<wgt id='1246'> +7.7082674e+01 </wgt>
<wgt id='1247'> +7.7033420e+01 </wgt>
<wgt id='1248'> +7.6969444e+01 </wgt>
<wgt id='1249'> +7.7004392e+01 </wgt>
<wgt id='1250'> +7.6994733e+01 </wgt>
<wgt id='1251'> +7.7083617e+01 </wgt>
<wgt id='1252'> +7.7036443e+01 </wgt>
<wgt id='1253'> +7.7002232e+01 </wgt>
<wgt id='1254'> +7.7006742e+01 </wgt>
<wgt id='1255'> +7.7028555e+01 </wgt>
<wgt id='1256'> +7.6970774e+01 </wgt>
<wgt id='1257'> +7.7007344e+01 </wgt>
<wgt id='1258'> +7.6991932e+01 </wgt>
<wgt id='1259'> +7.6991755e+01 </wgt>
<wgt id='1260'> +7.7018676e+01 </wgt>
<wgt id='1261'> +7.7030066e+01 </wgt>
<wgt id='1262'> +7.7031836e+01 </wgt>
<wgt id='1263'> +7.7009029e+01 </wgt>
<wgt id='1264'> +7.7009582e+01 </wgt>
<wgt id='1265'> +7.7003917e+01 </wgt>
<wgt id='1266'> +7.6994668e+01 </wgt>
<wgt id='1267'> +7.7034864e+01 </wgt>
<wgt id='1268'> +7.6989999e+01 </wgt>
<wgt id='1269'> +7.6995849e+01 </wgt>
<wgt id='1270'> +7.7002407e+01 </wgt>
<wgt id='1271'> +7.6975611e+01 </wgt>
<wgt id='1272'> +7.7013995e+01 </wgt>
<wgt id='1273'> +7.6993019e+01 </wgt>
<wgt id='1274'> +7.6991486e+01 </wgt>
<wgt id='1275'> +7.7003245e+01 </wgt>
<wgt id='1276'> +7.7013654e+01 </wgt>
<wgt id='1277'> +7.7003846e+01 </wgt>
<wgt id='1278'> +7.7022585e+01 </wgt>
<wgt id='1279'> +7.7033012e+01 </wgt>
<wgt id='1280'> +7.7001538e+01 </wgt>
<wgt id='1281'> +7.7012765e+01 </wgt>
<wgt id='1282'> +7.7015161e+01 </wgt>
<wgt id='1283'> +7.6994569e+01 </wgt>
<wgt id='1284'> +7.7008453e+01 </wgt>
<wgt id='1285'> +7.7001663e+01 </wgt>
<wgt id='1286'> +7.7014483e+01 </wgt>
<wgt id='1287'> +7.7008143e+01 </wgt>
<wgt id='1288'> +7.7014744e+01 </wgt>
<wgt id='1289'> +7.6992540e+01 </wgt>
<wgt id='1290'> +7.7025651e+01 </wgt>
<wgt id='1291'> +7.7011524e+01 </wgt>
<wgt id='1292'> +7.6999965e+01 </wgt>
<wgt id='1293'> +7.7007275e+01 </wgt>
<wgt id='1294'> +7.7014169e+01 </wgt>
<wgt id='1295'> +7.7003907e+01 </wgt>
<wgt id='1296'> +7.7003054e+01 </wgt>
<wgt id='1297'> +7.7005767e+01 </wgt>
<wgt id='1298'> +7.7003487e+01 </wgt>
<wgt id='1299'> +7.7010510e+01 </wgt>
<wgt id='1300'> +7.7007400e+01 </wgt>
<wgt id='1301'> +7.7010692e+01 </wgt>
<wgt id='1302'> +7.7013687e+01 </wgt>
<wgt id='1303'> +7.7005783e+01 </wgt>
<wgt id='1304'> +7.7006989e+01 </wgt>
<wgt id='1305'> +7.7008834e+01 </wgt>
<wgt id='1306'> +7.7012877e+01 </wgt>
<wgt id='1307'> +7.7006499e+01 </wgt>
<wgt id='1308'> +7.7004778e+01 </wgt>
<wgt id='1309'> +7.7011424e+01 </wgt>
<wgt id='1310'> +7.7014685e+01 </wgt>
<wgt id='1311'> +7.7007646e+01 </wgt>
<wgt id='1312'> +7.6998884e+01 </wgt>
<wgt id='1313'> +7.6999282e+01 </wgt>
<wgt id='1314'> +7.7002464e+01 </wgt>
<wgt id='1315'> +7.7009025e+01 </wgt>
<wgt id='1316'> +7.7011407e+01 </wgt>
<wgt id='1317'> +7.5425716e+01 </wgt>
<wgt id='1318'> +7.8874451e+01 </wgt>
<wgt id='1319'> +8.4239383e+01 </wgt>
<wgt id='1320'> +7.5250543e+01 </wgt>
<wgt id='1321'> +7.5330327e+01 </wgt>
<wgt id='1322'> +7.5478266e+01 </wgt>
<wgt id='1323'> +7.7421310e+01 </wgt>
<wgt id='1324'> +7.4012458e+01 </wgt>
<wgt id='1325'> +7.5433010e+01 </wgt>
<wgt id='1326'> +7.5092505e+01 </wgt>
<wgt id='1327'> +7.6528699e+01 </wgt>
<wgt id='1328'> +7.4452411e+01 </wgt>
<wgt id='1329'> +7.3548085e+01 </wgt>
<wgt id='1330'> +7.6521575e+01 </wgt>
<wgt id='1331'> +7.6797970e+01 </wgt>
<wgt id='1332'> +7.4320861e+01 </wgt>
<wgt id='1333'> +7.2326665e+01 </wgt>
<wgt id='1334'> +7.6956785e+01 </wgt>
<wgt id='1335'> +7.6095440e+01 </wgt>
<wgt id='1336'> +7.4674668e+01 </wgt>
<wgt id='1337'> +7.4397058e+01 </wgt>
<wgt id='1338'> +7.6263058e+01 </wgt>
<wgt id='1339'> +7.6436727e+01 </wgt>
<wgt id='1340'> +7.3945021e+01 </wgt>
<wgt id='1341'> +7.5543460e+01 </wgt>
<wgt id='1342'> +7.4648596e+01 </wgt>
<wgt id='1343'> +7.4745900e+01 </wgt>
<wgt id='1344'> +7.5718128e+01 </wgt>
<wgt id='1345'> +7.4350620e+01 </wgt>
<wgt id='1346'> +7.6048997e+01 </wgt>
<wgt id='1347'> +7.4980709e+01 </wgt>
<wgt id='1348'> +7.5617218e+01 </wgt>
<wgt id='1349'> +7.4611048e+01 </wgt>
<wgt id='1350'> +7.5471966e+01 </wgt>
<wgt id='1351'> +7.5423601e+01 </wgt>
<wgt id='1352'> +7.5024487e+01 </wgt>
<wgt id='1353'> +7.5080945e+01 </wgt>
<wgt id='1354'> +7.5598705e+01 </wgt>
<wgt id='1355'> +7.6332377e+01 </wgt>
<wgt id='1356'> +7.4207620e+01 </wgt>
<wgt id='1357'> +7.5984082e+01 </wgt>
<wgt id='1358'> +7.4068103e+01 </wgt>
<wgt id='1359'> +7.5297901e+01 </wgt>
<wgt id='1360'> +7.5098179e+01 </wgt>
<wgt id='1361'> +7.5924933e+01 </wgt>
<wgt id='1362'> +7.4631855e+01 </wgt>
<wgt id='1363'> +7.6197274e+01 </wgt>
<wgt id='1364'> +7.4357404e+01 </wgt>
<wgt id='1365'> +7.4210009e+01 </wgt>
<wgt id='1366'> +7.4917022e+01 </wgt>
<wgt id='1367'> +7.4034268e+01 </wgt>
<wgt id='1368'> +7.6059334e+01 </wgt>
<wgt id='1369'> +7.5539132e+01 </wgt>
<wgt id='1370'> +7.3393023e+01 </wgt>
<wgt id='1371'> +7.5137697e+01 </wgt>
<wgt id='1372'> +7.5059882e+01 </wgt>
<wgt id='1373'> +7.3494911e+01 </wgt>
<wgt id='1374'> +7.6036905e+01 </wgt>
<wgt id='1375'> +7.4511920e+01 </wgt>
<wgt id='1376'> +7.6023685e+01 </wgt>
<wgt id='1377'> +7.3543959e+01 </wgt>
<wgt id='1378'> +7.6755198e+01 </wgt>
<wgt id='1379'> +7.3994547e+01 </wgt>
<wgt id='1380'> +7.2529741e+01 </wgt>
<wgt id='1381'> +7.5155950e+01 </wgt>
<wgt id='1382'> +7.0230054e+01 </wgt>
<wgt id='1383'> +7.7147940e+01 </wgt>
<wgt id='1384'> +7.4663856e+01 </wgt>
<wgt id='1385'> +1.0174500e+02 </wgt>
<wgt id='1386'> +1.0191916e+02 </wgt>
<wgt id='1387'> +1.0154860e+02 </wgt>
<wgt id='1388'> +1.0124466e+02 </wgt>
<wgt id='1389'> +1.0260273e+02 </wgt>
<wgt id='1390'> +1.0152048e+02 </wgt>
<wgt id='1391'> +1.0201123e+02 </wgt>
<wgt id='1392'> +1.0165879e+02 </wgt>
<wgt id='1393'> +1.0180323e+02 </wgt>
<wgt id='1394'> +1.0140271e+02 </wgt>
<wgt id='1395'> +1.0216814e+02 </wgt>
<wgt id='1396'> +1.0086443e+02 </wgt>
<wgt id='1397'> +1.0220194e+02 </wgt>
<wgt id='1398'> +1.0194890e+02 </wgt>
<wgt id='1399'> +1.0158426e+02 </wgt>
<wgt id='1400'> +1.0149592e+02 </wgt>
<wgt id='1401'> +1.0192681e+02 </wgt>
<wgt id='1402'> +1.0151291e+02 </wgt>
<wgt id='1403'> +1.0185205e+02 </wgt>
<wgt id='1404'> +1.0273326e+02 </wgt>
<wgt id='1405'> +1.0126625e+02 </wgt>
<wgt id='1406'> +1.0165646e+02 </wgt>
<wgt id='1407'> +1.0190227e+02 </wgt>
<wgt id='1408'> +1.0171753e+02 </wgt>
<wgt id='1409'> +1.0180350e+02 </wgt>
<wgt id='1410'> +1.0171302e+02 </wgt>
<wgt id='1411'> +1.0176697e+02 </wgt>
<wgt id='1412'> +1.0258018e+02 </wgt>
<wgt id='1413'> +1.0073700e+02 </wgt>
<wgt id='1414'> +1.0217100e+02 </wgt>
<wgt id='1415'> +1.0147113e+02 </wgt>
<wgt id='1416'> +1.0183985e+02 </wgt>
<wgt id='1417'> +1.0168598e+02 </wgt>
<wgt id='1418'> +1.0204305e+02 </wgt>
<wgt id='1419'> +1.0111298e+02 </wgt>
<wgt id='1420'> +1.0118323e+02 </wgt>
<wgt id='1421'> +1.0180155e+02 </wgt>
<wgt id='1422'> +1.0197852e+02 </wgt>
<wgt id='1423'> +1.0147630e+02 </wgt>
<wgt id='1424'> +1.0195748e+02 </wgt>
<wgt id='1425'> +1.0121340e+02 </wgt>
<wgt id='1426'> +1.0189952e+02 </wgt>
<wgt id='1427'> +1.0160118e+02 </wgt>
<wgt id='1428'> +1.0201528e+02 </wgt>
<wgt id='1429'> +1.0184588e+02 </wgt>
<wgt id='1430'> +1.0175477e+02 </wgt>
<wgt id='1431'> +1.0173593e+02 </wgt>
<wgt id='1432'> +1.0170838e+02 </wgt>
<wgt id='1433'> +1.0177954e+02 </wgt>
<wgt id='1434'> +1.0167650e+02 </wgt>
<wgt id='1435'> +1.0181990e+02 </wgt>
<wgt id='1436'> +7.6974090e+01 </wgt>
<wgt id='1437'> +7.6945632e+01 </wgt>
<wgt id='1438'> +7.6992167e+01 </wgt>
<wgt id='1439'> +7.6968727e+01 </wgt>
<wgt id='1440'> +7.7235651e+01 </wgt>
<wgt id='1441'> +7.7098157e+01 </wgt>
<wgt id='1442'> +7.6749317e+01 </wgt>
<wgt id='1443'> +7.6906020e+01 </wgt>
<wgt id='1444'> +7.6513014e+01 </wgt>
<wgt id='1445'> +7.6737683e+01 </wgt>
<wgt id='1446'> +7.7029321e+01 </wgt>
<wgt id='1447'> +7.6967455e+01 </wgt>
<wgt id='1448'> +7.6802561e+01 </wgt>
<wgt id='1449'> +7.6776993e+01 </wgt>
<wgt id='1450'> +7.7030319e+01 </wgt>
<wgt id='1451'> +7.6979042e+01 </wgt>
<wgt id='1452'> +7.6801859e+01 </wgt>
<wgt id='1453'> +7.7107002e+01 </wgt>
<wgt id='1454'> +7.7179585e+01 </wgt>
<wgt id='1455'> +7.6927663e+01 </wgt>
<wgt id='1456'> +7.6951742e+01 </wgt>
<wgt id='1457'> +7.7048989e+01 </wgt>
<wgt id='1458'> +7.6821771e+01 </wgt>
<wgt id='1459'> +7.7063103e+01 </wgt>
<wgt id='1460'> +7.7194943e+01 </wgt>
<wgt id='1461'> +7.7039494e+01 </wgt>
<wgt id='1462'> +7.7027098e+01 </wgt>
<wgt id='1463'> +7.6882973e+01 </wgt>
<wgt id='1464'> +7.7305511e+01 </wgt>
<wgt id='1465'> +7.5276806e+01 </wgt>
<wgt id='1466'> +7.6080868e+01 </wgt>
<wgt id='1467'> +7.5982477e+01 </wgt>
<wgt id='1468'> +7.7023495e+01 </wgt>
<wgt id='1469'> +7.6672853e+01 </wgt>
<wgt id='1470'> +7.5868182e+01 </wgt>
<wgt id='1471'> +7.5606614e+01 </wgt>
<wgt id='1472'> +7.5979485e+01 </wgt>
<wgt id='1473'> +7.6302208e+01 </wgt>
<wgt id='1474'> +7.7051612e+01 </wgt>
<wgt id='1475'> +7.5616140e+01 </wgt>
<wgt id='1476'> +7.7411052e+01 </wgt>
<wgt id='1477'> +7.6111313e+01 </wgt>
<wgt id='1478'> +7.4990383e+01 </wgt>
<wgt id='1479'> +7.6245745e+01 </wgt>
<wgt id='1480'> +7.5609482e+01 </wgt>
<wgt id='1481'> +7.6088099e+01 </wgt>
<wgt id='1482'> +7.6346259e+01 </wgt>
<wgt id='1483'> +7.5977311e+01 </wgt>
<wgt id='1484'> +7.5858958e+01 </wgt>
<wgt id='1485'> +7.5857014e+01 </wgt>
<wgt id='1486'> +7.6125172e+01 </wgt>
<wgt id='1487'> +7.5739022e+01 </wgt>
<wgt id='1488'> +7.6160052e+01 </wgt>
<wgt id='1489'> +7.5970469e+01 </wgt>
<wgt id='1490'> +7.6106587e+01 </wgt>
<wgt id='1491'> +7.6022191e+01 </wgt>
<wgt id='1492'> +7.5985887e+01 </wgt>
<wgt id='1493'> +7.6073450e+01 </wgt>
<wgt id='1494'> +7.5915360e+01 </wgt>
<wgt id='1495'> +7.6052472e+01 </wgt>
<wgt id='1496'> +7.6096941e+01 </wgt>
<wgt id='1497'> +7.6052529e+01 </wgt>
<wgt id='1498'> +7.6096514e+01 </wgt>
<wgt id='1499'> +7.5933569e+01 </wgt>
<wgt id='1500'> +7.6114295e+01 </wgt>
<wgt id='1501'> +7.6242698e+01 </wgt>
<wgt id='1502'> +7.6035117e+01 </wgt>
<wgt id='1503'> +7.6106570e+01 </wgt>
<wgt id='1504'> +7.6011539e+01 </wgt>
<wgt id='1505'> +7.6096946e+01 </wgt>
<wgt id='1506'> +7.6103692e+01 </wgt>
<wgt id='1507'> +7.6119572e+01 </wgt>
<wgt id='1508'> +7.6140837e+01 </wgt>
<wgt id='1509'> +7.6013281e+01 </wgt>
<wgt id='1510'> +7.6166280e+01 </wgt>
<wgt id='1511'> +7.6140433e+01 </wgt>
<wgt id='1512'> +7.6145406e+01 </wgt>
<wgt id='1513'> +7.6018261e+01 </wgt>
<wgt id='1514'> +7.6010182e+01 </wgt>
<wgt id='1515'> +7.6088122e+01 </wgt>
<wgt id='1516'> +7.6088826e+01 </wgt>
<wgt id='1517'> +7.6008316e+01 </wgt>
<wgt id='1518'> +7.6091054e+01 </wgt>
<wgt id='1519'> +7.6044784e+01 </wgt>
<wgt id='1520'> +7.6042657e+01 </wgt>
<wgt id='1521'> +7.6090719e+01 </wgt>
<wgt id='1522'> +7.6075963e+01 </wgt>
<wgt id='1523'> +7.6066665e+01 </wgt>
<wgt id='1524'> +7.6161199e+01 </wgt>
<wgt id='1525'> +7.6046306e+01 </wgt>
<wgt id='1526'> +7.6000824e+01 </wgt>
<wgt id='1527'> +7.6075944e+01 </wgt>
<wgt id='1528'> +7.6029443e+01 </wgt>
<wgt id='1529'> +7.6082241e+01 </wgt>
<wgt id='1530'> +7.6068369e+01 </wgt>
<wgt id='1531'> +7.6078868e+01 </wgt>
<wgt id='1532'> +7.6072371e+01 </wgt>
<wgt id='1533'> +7.6077180e+01 </wgt>
<wgt id='1534'> +7.6109386e+01 </wgt>
<wgt id='1535'> +7.6101031e+01 </wgt>
<wgt id='1536'> +7.6067782e+01 </wgt>
<wgt id='1537'> +7.6049960e+01 </wgt>
<wgt id='1538'> +7.6061785e+01 </wgt>
<wgt id='1539'> +7.6052136e+01 </wgt>
<wgt id='1540'> +7.6088948e+01 </wgt>
<wgt id='1541'> +7.6071536e+01 </wgt>
<wgt id='1542'> +7.6077356e+01 </wgt>
<wgt id='1543'> +7.6073172e+01 </wgt>
<wgt id='1544'> +7.6086638e+01 </wgt>
<wgt id='1545'> +7.6123558e+01 </wgt>
<wgt id='1546'> +7.6080213e+01 </wgt>
<wgt id='1547'> +7.6094537e+01 </wgt>
<wgt id='1548'> +7.6039521e+01 </wgt>
<wgt id='1549'> +7.6107042e+01 </wgt>
<wgt id='1550'> +7.6100385e+01 </wgt>
<wgt id='1551'> +7.6092140e+01 </wgt>
<wgt id='1552'> +7.6116753e+01 </wgt>
<wgt id='1553'> +7.6074190e+01 </wgt>
<wgt id='1554'> +7.6067756e+01 </wgt>
<wgt id='1555'> +7.6083392e+01 </wgt>
<wgt id='1556'> +7.6075275e+01 </wgt>
<wgt id='1557'> +7.6068525e+01 </wgt>
<wgt id='1558'> +7.6078066e+01 </wgt>
<wgt id='1559'> +7.6057241e+01 </wgt>
<wgt id='1560'> +7.6087397e+01 </wgt>
<wgt id='1561'> +7.6085555e+01 </wgt>
<wgt id='1562'> +7.6065683e+01 </wgt>
<wgt id='1563'> +7.6091336e+01 </wgt>
<wgt id='1564'> +7.6096100e+01 </wgt>
<wgt id='1565'> +7.6089804e+01 </wgt>
<wgt id='1566'> +7.6080570e+01 </wgt>
<wgt id='1567'> +7.4889438e+01 </wgt>
<wgt id='1568'> +7.7042885e+01 </wgt>
<wgt id='1569'> +7.4594823e+01 </wgt>
<wgt id='1570'> +7.4698611e+01 </wgt>
<wgt id='1571'> +7.5047575e+01 </wgt>
<wgt id='1572'> +7.3825833e+01 </wgt>
<wgt id='1573'> +7.4423285e+01 </wgt>
<wgt id='1574'> +7.5089089e+01 </wgt>
<wgt id='1575'> +7.4259447e+01 </wgt>
<wgt id='1576'> +7.4360353e+01 </wgt>
<wgt id='1577'> +7.4654922e+01 </wgt>
<wgt id='1578'> +7.4559200e+01 </wgt>
<wgt id='1579'> +7.4382736e+01 </wgt>
<wgt id='1580'> +7.5569372e+01 </wgt>
<wgt id='1581'> +7.3745950e+01 </wgt>
<wgt id='1582'> +7.3397950e+01 </wgt>
<wgt id='1583'> +7.3611739e+01 </wgt>
<wgt id='1584'> +7.4489375e+01 </wgt>
<wgt id='1585'> +7.5047725e+01 </wgt>
<wgt id='1586'> +7.4668474e+01 </wgt>
<wgt id='1587'> +7.4596897e+01 </wgt>
<wgt id='1588'> +7.4518768e+01 </wgt>
<wgt id='1589'> +7.4920271e+01 </wgt>
<wgt id='1590'> +7.4511788e+01 </wgt>
<wgt id='1591'> +7.4689974e+01 </wgt>
<wgt id='1592'> +7.4480978e+01 </wgt>
<wgt id='1593'> +7.4483380e+01 </wgt>
<wgt id='1594'> +7.4734358e+01 </wgt>
<wgt id='1595'> +7.4646347e+01 </wgt>
<wgt id='1596'> +7.4524151e+01 </wgt>
<wgt id='1597'> +7.4649458e+01 </wgt>
<wgt id='1598'> +7.4650891e+01 </wgt>
<wgt id='1599'> +7.4649562e+01 </wgt>
<wgt id='1600'> +7.4575691e+01 </wgt>
<wgt id='1601'> +7.4633714e+01 </wgt>
<wgt id='1602'> +7.4688265e+01 </wgt>
<wgt id='1603'> +7.4545945e+01 </wgt>
<wgt id='1604'> +7.4708155e+01 </wgt>
<wgt id='1605'> +7.4585514e+01 </wgt>
<wgt id='1606'> +7.4668589e+01 </wgt>
<wgt id='1607'> +7.4595724e+01 </wgt>
<wgt id='1608'> +7.4594757e+01 </wgt>
<wgt id='1609'> +7.4511664e+01 </wgt>
<wgt id='1610'> +7.4560656e+01 </wgt>
<wgt id='1611'> +7.4577349e+01 </wgt>
<wgt id='1612'> +7.4539551e+01 </wgt>
<wgt id='1613'> +7.4619387e+01 </wgt>
<wgt id='1614'> +7.4581601e+01 </wgt>
<wgt id='1615'> +7.4492514e+01 </wgt>
<wgt id='1616'> +7.4554131e+01 </wgt>
<wgt id='1617'> +7.4624004e+01 </wgt>
<wgt id='1618'> +7.4556076e+01 </wgt>
<wgt id='1619'> +7.4616017e+01 </wgt>
<wgt id='1620'> +7.4619701e+01 </wgt>
<wgt id='1621'> +7.4608617e+01 </wgt>
<wgt id='1622'> +7.4604099e+01 </wgt>
<wgt id='1623'> +7.4554301e+01 </wgt>
<wgt id='1624'> +7.4584012e+01 </wgt>
<wgt id='1625'> +7.4667072e+01 </wgt>
<wgt id='1626'> +7.4588108e+01 </wgt>
<wgt id='1627'> +7.4542180e+01 </wgt>
<wgt id='1628'> +7.4562384e+01 </wgt>
<wgt id='1629'> +7.4571230e+01 </wgt>
<wgt id='1630'> +7.4607104e+01 </wgt>
<wgt id='1631'> +7.4606942e+01 </wgt>
<wgt id='1632'> +7.4628017e+01 </wgt>
<wgt id='1633'> +7.4579209e+01 </wgt>
<wgt id='1634'> +7.4591824e+01 </wgt>
<wgt id='1635'> +7.4600504e+01 </wgt>
<wgt id='1636'> +7.4619725e+01 </wgt>
<wgt id='1637'> +7.4621213e+01 </wgt>
<wgt id='1638'> +7.4633913e+01 </wgt>
<wgt id='1639'> +7.4587014e+01 </wgt>
<wgt id='1640'> +7.4637706e+01 </wgt>
<wgt id='1641'> +7.4637225e+01 </wgt>
<wgt id='1642'> +7.4574488e+01 </wgt>
<wgt id='1643'> +7.4606494e+01 </wgt>
<wgt id='1644'> +7.4591475e+01 </wgt>
<wgt id='1645'> +7.4588096e+01 </wgt>
<wgt id='1646'> +7.4603923e+01 </wgt>
<wgt id='1647'> +7.4599525e+01 </wgt>
<wgt id='1648'> +7.4581395e+01 </wgt>
<wgt id='1649'> +7.4643724e+01 </wgt>
<wgt id='1650'> +7.4588340e+01 </wgt>
<wgt id='1651'> +7.4613017e+01 </wgt>
<wgt id='1652'> +7.4572640e+01 </wgt>
<wgt id='1653'> +7.4574528e+01 </wgt>
<wgt id='1654'> +7.4575291e+01 </wgt>
<wgt id='1655'> +7.4604392e+01 </wgt>
<wgt id='1656'> +7.4549177e+01 </wgt>
<wgt id='1657'> +7.4578024e+01 </wgt>
<wgt id='1658'> +7.4576678e+01 </wgt>
<wgt id='1659'> +7.4605037e+01 </wgt>
<wgt id='1660'> +7.4587205e+01 </wgt>
<wgt id='1661'> +7.4591859e+01 </wgt>
<wgt id='1662'> +7.4583449e+01 </wgt>
<wgt id='1663'> +7.4589044e+01 </wgt>
<wgt id='1664'> +7.4602770e+01 </wgt>
<wgt id='1665'> +7.4581249e+01 </wgt>
<wgt id='1666'> +7.4599874e+01 </wgt>
<wgt id='1667'> +7.4593575e+01 </wgt>
<wgt id='1668'> +7.4578691e+01 </wgt>
<wgt id='1669'> +7.4593674e+01 </wgt>
<wgt id='1670'> +7.3677914e+01 </wgt>
<wgt id='1671'> +7.5243633e+01 </wgt>
<wgt id='1672'> +7.6091540e+01 </wgt>
<wgt id='1673'> +7.6537023e+01 </wgt>
<wgt id='1674'> +7.6038738e+01 </wgt>
<wgt id='1675'> +7.6125742e+01 </wgt>
<wgt id='1676'> +7.6115119e+01 </wgt>
<wgt id='1677'> +7.8544332e+01 </wgt>
<wgt id='1678'> +7.6066947e+01 </wgt>
<wgt id='1679'> +7.6075739e+01 </wgt>
<wgt id='1680'> +7.6270272e+01 </wgt>
<wgt id='1681'> +7.5963040e+01 </wgt>
<wgt id='1682'> +7.6147080e+01 </wgt>
<wgt id='1683'> +7.5976822e+01 </wgt>
<wgt id='1684'> +7.6032553e+01 </wgt>
<wgt id='1685'> +7.6100670e+01 </wgt>
<wgt id='1686'> +7.6093128e+01 </wgt>
<wgt id='1687'> +7.6141598e+01 </wgt>
<wgt id='1688'> +7.6072457e+01 </wgt>
<wgt id='1689'> +7.5890057e+01 </wgt>
<wgt id='1690'> +7.6150884e+01 </wgt>
<wgt id='1691'> +7.5958987e+01 </wgt>
<wgt id='1692'> +7.6117574e+01 </wgt>
<wgt id='1693'> +7.6099633e+01 </wgt>
<wgt id='1694'> +7.6085202e+01 </wgt>
<wgt id='1695'> +7.6149029e+01 </wgt>
<wgt id='1696'> +7.6091964e+01 </wgt>
<wgt id='1697'> +7.6044602e+01 </wgt>
<wgt id='1698'> +7.6105611e+01 </wgt>
<wgt id='1699'> +7.6088463e+01 </wgt>
<wgt id='1700'> +7.6255692e+01 </wgt>
<wgt id='1701'> +7.6139180e+01 </wgt>
<wgt id='1702'> +7.6059822e+01 </wgt>
<wgt id='1703'> +7.4889438e+01 </wgt>
<wgt id='1704'> +7.7042885e+01 </wgt>
<wgt id='1705'> +7.4593693e+01 </wgt>
<wgt id='1706'> +7.4540593e+01 </wgt>
<wgt id='1707'> +7.4936994e+01 </wgt>
<wgt id='1708'> +7.4522666e+01 </wgt>
<wgt id='1709'> +7.4949360e+01 </wgt>
<wgt id='1710'> +7.3502878e+01 </wgt>
<wgt id='1711'> +7.4578218e+01 </wgt>
<wgt id='1712'> +7.4412309e+01 </wgt>
<wgt id='1713'> +7.4454439e+01 </wgt>
<wgt id='1714'> +7.4193153e+01 </wgt>
<wgt id='1715'> +7.4487535e+01 </wgt>
<wgt id='1716'> +7.4115368e+01 </wgt>
<wgt id='1717'> +7.4676053e+01 </wgt>
<wgt id='1718'> +7.4890889e+01 </wgt>
<wgt id='1719'> +7.4319914e+01 </wgt>
<wgt id='1720'> +7.4484284e+01 </wgt>
<wgt id='1721'> +7.4502945e+01 </wgt>
<wgt id='1722'> +7.5317148e+01 </wgt>
<wgt id='1723'> +7.4592368e+01 </wgt>
<wgt id='1724'> +7.4560148e+01 </wgt>
<wgt id='1725'> +7.4728603e+01 </wgt>
<wgt id='1726'> +7.4875991e+01 </wgt>
<wgt id='1727'> +7.6334772e+01 </wgt>
<wgt id='1728'> +7.4568290e+01 </wgt>
<wgt id='1729'> +7.4534953e+01 </wgt>
<wgt id='1730'> +7.4464955e+01 </wgt>
<wgt id='1731'> +7.4580085e+01 </wgt>
<wgt id='1732'> +7.4584231e+01 </wgt>
<wgt id='1733'> +7.4553084e+01 </wgt>
<wgt id='1734'> +7.4547376e+01 </wgt>
<wgt id='1735'> +7.4601987e+01 </wgt>
<wgt id='1736'> +7.3677914e+01 </wgt>
<wgt id='1737'> +7.5243633e+01 </wgt>
<wgt id='1738'> +8.0286942e+01 </wgt>
<wgt id='1739'> +8.0168157e+01 </wgt>
<wgt id='1740'> +8.0405315e+01 </wgt>
<wgt id='1741'> +8.0470366e+01 </wgt>
<wgt id='1742'> +8.0103813e+01 </wgt>
<wgt id='1743'> +8.0438580e+01 </wgt>
<wgt id='1744'> +8.0135612e+01 </wgt>
<wgt id='1745'> +8.0576538e+01 </wgt>
<wgt id='1746'> +8.0005040e+01 </wgt>
<wgt id='1747'> +8.0397313e+01 </wgt>
<wgt id='1748'> +8.0178844e+01 </wgt>
<wgt id='1749'> +8.0113183e+01 </wgt>
<wgt id='1750'> +8.0486591e+01 </wgt>
<wgt id='1751'> +7.9936604e+01 </wgt>
<wgt id='1752'> +8.0641991e+01 </wgt>
<wgt id='1753'> +8.0270591e+01 </wgt>
<wgt id='1754'> +8.0155364e+01 </wgt>
<wgt id='1755'> +8.0568274e+01 </wgt>
<wgt id='1756'> +8.0013787e+01 </wgt>
<wgt id='1757'> +7.9945645e+01 </wgt>
<wgt id='1758'> +8.0601092e+01 </wgt>
<wgt id='1759'> +8.0625741e+01 </wgt>
<wgt id='1760'> +7.9864252e+01 </wgt>
<wgt id='1761'> +7.9972188e+01 </wgt>
<wgt id='1762'> +8.0202668e+01 </wgt>
<wgt id='1763'> +8.0562828e+01 </wgt>
<wgt id='1764'> +8.0121982e+01 </wgt>
<wgt id='1765'> +8.0220417e+01 </wgt>
<wgt id='1766'> +8.0424710e+01 </wgt>
<wgt id='1767'> +8.0286942e+01 </wgt>
<wgt id='1768'> +8.0248315e+01 </wgt>
<wgt id='1769'> +8.0286961e+01 </wgt>
<wgt id='1770'> +8.0233200e+01 </wgt>
<wgt id='1771'> +8.0287630e+01 </wgt>
<wgt id='1772'> +8.0555552e+01 </wgt>
<wgt id='1773'> +7.9550021e+01 </wgt>
<wgt id='1774'> +7.9950173e+01 </wgt>
<wgt id='1775'> +8.0598912e+01 </wgt>
<wgt id='1776'> +8.0143566e+01 </wgt>
<wgt id='1777'> +8.0446525e+01 </wgt>
<wgt id='1778'> +8.0303724e+01 </wgt>
<wgt id='1779'> +8.0354814e+01 </wgt>
<wgt id='1780'> +7.9342952e+01 </wgt>
<wgt id='1781'> +7.4274491e+01 </wgt>
<wgt id='1782'> +7.4206936e+01 </wgt>
<wgt id='1783'> +7.4330603e+01 </wgt>
<wgt id='1784'> +7.4345975e+01 </wgt>
<wgt id='1785'> +7.4191980e+01 </wgt>
<wgt id='1786'> +7.4450817e+01 </wgt>
<wgt id='1787'> +7.4087296e+01 </wgt>
<wgt id='1788'> +7.4650330e+01 </wgt>
<wgt id='1789'> +7.3897526e+01 </wgt>
<wgt id='1790'> +7.4243095e+01 </wgt>
<wgt id='1791'> +7.4300483e+01 </wgt>
<wgt id='1792'> +7.4476050e+01 </wgt>
<wgt id='1793'> +7.4062351e+01 </wgt>
<wgt id='1794'> +7.4043078e+01 </wgt>
<wgt id='1795'> +7.4491993e+01 </wgt>
<wgt id='1796'> +7.4109531e+01 </wgt>
<wgt id='1797'> +7.4314288e+01 </wgt>
<wgt id='1798'> +7.4249256e+01 </wgt>
<wgt id='1799'> +7.4274626e+01 </wgt>
<wgt id='1800'> +7.4096233e+01 </wgt>
<wgt id='1801'> +7.4437456e+01 </wgt>
<wgt id='1802'> +7.3619048e+01 </wgt>
<wgt id='1803'> +7.4823263e+01 </wgt>
<wgt id='1804'> +7.4337437e+01 </wgt>
<wgt id='1805'> +7.4193656e+01 </wgt>
<wgt id='1806'> +7.4051631e+01 </wgt>
<wgt id='1807'> +7.4308925e+01 </wgt>
<wgt id='1808'> +7.4284511e+01 </wgt>
<wgt id='1809'> +7.4333057e+01 </wgt>
<wgt id='1810'> +7.4221572e+01 </wgt>
<wgt id='1811'> +7.4275605e+01 </wgt>
<wgt id='1812'> +7.4001908e+01 </wgt>
<wgt id='1813'> +7.4246048e+01 </wgt>
<wgt id='1814'> +7.4150761e+01 </wgt>
<wgt id='1815'> +7.4191901e+01 </wgt>
<wgt id='1816'> +7.4030761e+01 </wgt>
<wgt id='1817'> +7.3947476e+01 </wgt>
<wgt id='1818'> +7.4638949e+01 </wgt>
<wgt id='1819'> +7.4029673e+01 </wgt>
<wgt id='1820'> +7.4405804e+01 </wgt>
<wgt id='1821'> +7.3980709e+01 </wgt>
<wgt id='1822'> +7.4835191e+01 </wgt>
<wgt id='1823'> +7.3664216e+01 </wgt>
<wgt id='1824'> +7.5057900e+01 </wgt>
<wgt id='1825'> +7.5046558e+01 </wgt>
<wgt id='1826'> +7.5035188e+01 </wgt>
<wgt id='1827'> +7.5023716e+01 </wgt>
<wgt id='1828'> +7.5012340e+01 </wgt>
<wgt id='1829'> +7.5001004e+01 </wgt>
<wgt id='1830'> +7.4989602e+01 </wgt>
<wgt id='1831'> +7.4978254e+01 </wgt>
<wgt id='1832'> +7.4966808e+01 </wgt>
<wgt id='1833'> +7.4955406e+01 </wgt>
<wgt id='1834'> +7.4944058e+01 </wgt>
<wgt id='1835'> +7.4932706e+01 </wgt>
<wgt id='1836'> +7.4921322e+01 </wgt>
<wgt id='1837'> +7.4909963e+01 </wgt>
<wgt id='1838'> +7.4898523e+01 </wgt>
<wgt id='1839'> +7.4887133e+01 </wgt>
<wgt id='1840'> +7.4875992e+01 </wgt>
<wgt id='1841'> +7.4864640e+01 </wgt>
<wgt id='1842'> +7.4853315e+01 </wgt>
<wgt id='1843'> +7.4841826e+01 </wgt>
<wgt id='1844'> +7.4830493e+01 </wgt>
<wgt id='1845'> +7.4819130e+01 </wgt>
<wgt id='1846'> +7.4807776e+01 </wgt>
<wgt id='1847'> +7.4796422e+01 </wgt>
<wgt id='1848'> +7.4785007e+01 </wgt>
<wgt id='1849'> +7.4773600e+01 </wgt>
<wgt id='1850'> +7.4762292e+01 </wgt>
<wgt id='1851'> +7.4750947e+01 </wgt>
<wgt id='1852'> +7.4739592e+01 </wgt>
<wgt id='1853'> +7.4728131e+01 </wgt>
<wgt id='1854'> +7.4716820e+01 </wgt>
<wgt id='1855'> +7.3683036e+01 </wgt>
<wgt id='1856'> +7.3786522e+01 </wgt>
<wgt id='1857'> +7.4129207e+01 </wgt>
<wgt id='1858'> +7.2925155e+01 </wgt>
<wgt id='1859'> +7.3515425e+01 </wgt>
<wgt id='1860'> +7.4174177e+01 </wgt>
<wgt id='1861'> +7.3352237e+01 </wgt>
<wgt id='1862'> +7.3449143e+01 </wgt>
<wgt id='1863'> +7.3741332e+01 </wgt>
<wgt id='1864'> +7.3648783e+01 </wgt>
<wgt id='1865'> +7.3474412e+01 </wgt>
<wgt id='1866'> +7.4646340e+01 </wgt>
<wgt id='1867'> +7.2844150e+01 </wgt>
<wgt id='1868'> +7.2502662e+01 </wgt>
<wgt id='1869'> +7.2710006e+01 </wgt>
<wgt id='1870'> +7.3575835e+01 </wgt>
<wgt id='1871'> +7.4129216e+01 </wgt>
<wgt id='1872'> +7.3755537e+01 </wgt>
<wgt id='1873'> +7.3687288e+01 </wgt>
<wgt id='1874'> +7.3610150e+01 </wgt>
<wgt id='1875'> +7.4005244e+01 </wgt>
<wgt id='1876'> +7.3597142e+01 </wgt>
<wgt id='1877'> +7.3780173e+01 </wgt>
<wgt id='1878'> +7.3564345e+01 </wgt>
<wgt id='1879'> +7.3569457e+01 </wgt>
<wgt id='1880'> +7.3824289e+01 </wgt>
<wgt id='1881'> +7.3734415e+01 </wgt>
<wgt id='1882'> +7.3612489e+01 </wgt>
<wgt id='1883'> +7.3738135e+01 </wgt>
<wgt id='1884'> +7.3739167e+01 </wgt>
<wgt id='1885'> +7.3738437e+01 </wgt>
<wgt id='1886'> +7.3662880e+01 </wgt>
<wgt id='1887'> +7.3721252e+01 </wgt>
<wgt id='1888'> +7.3776232e+01 </wgt>
<wgt id='1889'> +7.3635417e+01 </wgt>
<wgt id='1890'> +7.3796609e+01 </wgt>
<wgt id='1891'> +7.3673581e+01 </wgt>
<wgt id='1892'> +7.3757056e+01 </wgt>
<wgt id='1893'> +7.3684358e+01 </wgt>
<wgt id='1894'> +7.3683230e+01 </wgt>
<wgt id='1895'> +7.3600313e+01 </wgt>
<wgt id='1896'> +7.3648871e+01 </wgt>
<wgt id='1897'> +7.3665786e+01 </wgt>
<wgt id='1898'> +7.3627815e+01 </wgt>
<wgt id='1899'> +7.3707924e+01 </wgt>
<wgt id='1900'> +7.3669577e+01 </wgt>
<wgt id='1901'> +7.3581119e+01 </wgt>
<wgt id='1902'> +7.3642835e+01 </wgt>
<wgt id='1903'> +7.3711682e+01 </wgt>
<wgt id='1904'> +7.3644214e+01 </wgt>
<wgt id='1905'> +7.3703958e+01 </wgt>
<wgt id='1906'> +7.3707961e+01 </wgt>
<wgt id='1907'> +7.3696748e+01 </wgt>
<wgt id='1908'> +7.3692503e+01 </wgt>
<wgt id='1909'> +7.3642606e+01 </wgt>
<wgt id='1910'> +7.3672049e+01 </wgt>
<wgt id='1911'> +7.3754726e+01 </wgt>
<wgt id='1912'> +7.3676286e+01 </wgt>
<wgt id='1913'> +7.3630696e+01 </wgt>
<wgt id='1914'> +7.3650554e+01 </wgt>
<wgt id='1915'> +7.3659371e+01 </wgt>
<wgt id='1916'> +7.3695155e+01 </wgt>
<wgt id='1917'> +7.3694961e+01 </wgt>
<wgt id='1918'> +7.3716262e+01 </wgt>
<wgt id='1919'> +7.3667389e+01 </wgt>
<wgt id='1920'> +7.3679933e+01 </wgt>
<wgt id='1921'> +7.3688760e+01 </wgt>
<wgt id='1922'> +7.3707727e+01 </wgt>
<wgt id='1923'> +7.3709087e+01 </wgt>
<wgt id='1924'> +7.3722051e+01 </wgt>
<wgt id='1925'> +7.3675138e+01 </wgt>
<wgt id='1926'> +7.3725898e+01 </wgt>
<wgt id='1927'> +7.3725315e+01 </wgt>
<wgt id='1928'> +7.3662621e+01 </wgt>
<wgt id='1929'> +7.3694757e+01 </wgt>
<wgt id='1930'> +7.3679593e+01 </wgt>
<wgt id='1931'> +7.3676408e+01 </wgt>
<wgt id='1932'> +7.3692181e+01 </wgt>
<wgt id='1933'> +7.3687924e+01 </wgt>
<wgt id='1934'> +7.3669671e+01 </wgt>
<wgt id='1935'> +7.3731630e+01 </wgt>
<wgt id='1936'> +7.3676493e+01 </wgt>
<wgt id='1937'> +7.3701077e+01 </wgt>
<wgt id='1938'> +7.3661014e+01 </wgt>
<wgt id='1939'> +7.3662903e+01 </wgt>
<wgt id='1940'> +7.3663732e+01 </wgt>
<wgt id='1941'> +7.3692591e+01 </wgt>
<wgt id='1942'> +7.3637750e+01 </wgt>
<wgt id='1943'> +7.3666407e+01 </wgt>
<wgt id='1944'> +7.3665183e+01 </wgt>
<wgt id='1945'> +7.3693245e+01 </wgt>
<wgt id='1946'> +7.3675502e+01 </wgt>
<wgt id='1947'> +7.3680320e+01 </wgt>
<wgt id='1948'> +7.3671616e+01 </wgt>
<wgt id='1949'> +7.3677439e+01 </wgt>
<wgt id='1950'> +7.3691122e+01 </wgt>
<wgt id='1951'> +7.3669491e+01 </wgt>
<wgt id='1952'> +7.3687891e+01 </wgt>
<wgt id='1953'> +7.3681937e+01 </wgt>
<wgt id='1954'> +7.3667031e+01 </wgt>
<wgt id='1955'> +7.3681901e+01 </wgt>
<wgt id='1956'> +7.3682129e+01 </wgt>
<wgt id='1957'> +7.3688025e+01 </wgt>
<wgt id='1958'> +7.3684000e+01 </wgt>
<wgt id='1959'> +7.3684156e+01 </wgt>
<wgt id='1960'> +7.3685845e+01 </wgt>
<wgt id='1961'> +7.3683444e+01 </wgt>
<wgt id='1962'> +7.3689093e+01 </wgt>
</rwgt>
</event>
<event npLO=" -1 " npNLO=" 1 ">
 7      1 +1.5146096e+02 1.49856110e+01 7.54677110e-03 1.61344680e-01
       -2 -1    0    0    0  501 +0.0000000000e+00 +0.0000000000e+00 +4.1514533000e+02 4.1514533000e+02 0.0000000000e+00 0.0000e+00 9.0000e+00
       21 -1    0    0  501  502 +0.0000000000e+00 +0.0000000000e+00 -8.6120728000e+00 8.6120728000e+00 0.0000000000e+00 0.0000e+00 9.0000e+00
       23  2    1    2    0    0 +9.0576099000e+00 +1.1938519000e+01 +3.8589509000e+02 3.9825245000e+02 9.7290426000e+01 0.0000e+00 0.0000e+00
       13  1    3    3    0    0 +2.9313920000e+01 -2.7100874000e+00 +9.6660205000e+01 1.0104378000e+02 0.0000000000e+00 0.0000e+00 9.0000e+00
      -13  1    3    3    0    0 -4.2166261000e+01 +1.7427242000e+01 +2.1341611000e+02 2.1823871000e+02 0.0000000000e+00 0.0000e+00 9.0000e+00
       22  1    3    3    0    0 +2.1909951000e+01 -2.7786348000e+00 +7.5818774000e+01 7.8969952000e+01 0.0000000000e+00 0.0000e+00 9.0000e+00
       -2  1    1    2    0  502 -9.0576099000e+00 -1.1938519000e+01 +2.0638168000e+01 2.5504951000e+01 0.0000000000e+00 0.0000e+00 9.0000e+00
#aMCatNLO 1  0  0  2  6 0.85606348E+01 0.00000000E+00 -9  7  0 0.00000000E+00 0.00000000E+00 0.00000000E+00 0.00000000E+00 0.00000000E+00
<rwgt>
<wgt id='1001'> +1.5147000e+02 </wgt>
<wgt id='1002'> +1.5147000e+02 </wgt>
<wgt id='1003'> +1.3360000e+02 </wgt>
<wgt id='1004'> +1.4434000e+02 </wgt>
<wgt id='1005'> +1.5227000e+02 </wgt>
<wgt id='1006'> +1.5172000e+02 </wgt>
<wgt id='1007'> +1.4862000e+02 </wgt>
<wgt id='1008'> +1.4702000e+02 </wgt>
<wgt id='1009'> +1.5749000e+02 </wgt>
<wgt id='1010'> +1.5289000e+02 </wgt>
<wgt id='1011'> +1.5381000e+02 </wgt>
<wgt id='1012'> +1.5852000e+02 </wgt>
<wgt id='1013'> +1.5018000e+02 </wgt>
<wgt id='1014'> +1.5027000e+02 </wgt>
<wgt id='1015'> +1.5514000e+02 </wgt>
<wgt id='1016'> +1.5297000e+02 </wgt>
<wgt id='1017'> +1.5049000e+02 </wgt>
<wgt id='1018'> +1.5279000e+02 </wgt>
<wgt id='1019'> +1.5055000e+02 </wgt>
<wgt id='1020'> +1.4638000e+02 </wgt>
<wgt id='1021'> +1.5099000e+02 </wgt>
<wgt id='1022'> +1.5863000e+02 </wgt>
<wgt id='1023'> +1.5307000e+02 </wgt>
<wgt id='1024'> +1.5737000e+02 </wgt>
<wgt id='1025'> +1.5786000e+02 </wgt>
<wgt id='1026'> +1.6163000e+02 </wgt>
<wgt id='1027'> +1.5317000e+02 </wgt>
<wgt id='1028'> +1.5364000e+02 </wgt>
<wgt id='1029'> +1.5155000e+02 </wgt>
<wgt id='1030'> +1.5170000e+02 </wgt>
<wgt id='1031'> +1.5077000e+02 </wgt>
<wgt id='1032'> +1.5686000e+02 </wgt>
<wgt id='1033'> +1.6086000e+02 </wgt>
<wgt id='1034'> +1.5445000e+02 </wgt>
<wgt id='1035'> +1.5273000e+02 </wgt>
<wgt id='1036'> +1.5303000e+02 </wgt>
<wgt id='1037'> +1.5878000e+02 </wgt>
<wgt id='1038'> +1.4946000e+02 </wgt>
<wgt id='1039'> +1.5521000e+02 </wgt>
<wgt id='1040'> +1.5119000e+02 </wgt>
<wgt id='1041'> +1.4486000e+02 </wgt>
<wgt id='1042'> +1.5264000e+02 </wgt>
<wgt id='1043'> +1.4162000e+02 </wgt>
<wgt id='1044'> +1.5081000e+02 </wgt>
<wgt id='1045'> +1.5679000e+02 </wgt>
<wgt id='1046'> +1.5110000e+02 </wgt>
<wgt id='1047'> +1.5325000e+02 </wgt>
<wgt id='1048'> +1.4451000e+02 </wgt>
<wgt id='1049'> +1.4742000e+02 </wgt>
<wgt id='1050'> +1.5212000e+02 </wgt>
<wgt id='1051'> +1.5296000e+02 </wgt>
<wgt id='1052'> +1.4825000e+02 </wgt>
<wgt id='1053'> +1.4912000e+02 </wgt>
<wgt id='1054'> +1.5202000e+02 </wgt>
<wgt id='1055'> +1.6059000e+02 </wgt>
<wgt id='1056'> +1.5208000e+02 </wgt>
<wgt id='1057'> +1.5358000e+02 </wgt>
<wgt id='1058'> +1.4592000e+02 </wgt>
<wgt id='1059'> +1.4206000e+02 </wgt>
<wgt id='1060'> +1.4700000e+02 </wgt>
<wgt id='1061'> +1.5654000e+02 </wgt>
<wgt id='1062'> +1.5363000e+02 </wgt>
<wgt id='1063'> +1.4951000e+02 </wgt>
<wgt id='1064'> +1.5020000e+02 </wgt>
<wgt id='1065'> +1.4907000e+02 </wgt>
<wgt id='1066'> +1.4511000e+02 </wgt>
<wgt id='1067'> +1.5363000e+02 </wgt>
<wgt id='1068'> +1.5834000e+02 </wgt>
<wgt id='1069'> +1.5572000e+02 </wgt>
<wgt id='1070'> +1.5436000e+02 </wgt>
<wgt id='1071'> +1.5816000e+02 </wgt>
<wgt id='1072'> +1.5577000e+02 </wgt>
<wgt id='1073'> +1.5003000e+02 </wgt>
<wgt id='1074'> +1.5144000e+02 </wgt>
<wgt id='1075'> +1.3695000e+02 </wgt>
<wgt id='1076'> +1.5475000e+02 </wgt>
<wgt id='1077'> +1.4540000e+02 </wgt>
<wgt id='1078'> +1.5336000e+02 </wgt>
<wgt id='1079'> +1.5545000e+02 </wgt>
<wgt id='1080'> +1.5174000e+02 </wgt>
<wgt id='1081'> +1.4772000e+02 </wgt>
<wgt id='1082'> +1.5573000e+02 </wgt>
<wgt id='1083'> +1.5251000e+02 </wgt>
<wgt id='1084'> +1.5337000e+02 </wgt>
<wgt id='1085'> +1.4714000e+02 </wgt>
<wgt id='1086'> +1.5197000e+02 </wgt>
<wgt id='1087'> +1.4971000e+02 </wgt>
<wgt id='1088'> +1.4847000e+02 </wgt>
<wgt id='1089'> +1.4773000e+02 </wgt>
<wgt id='1090'> +1.4649000e+02 </wgt>
<wgt id='1091'> +1.4476000e+02 </wgt>
<wgt id='1092'> +1.5629000e+02 </wgt>
<wgt id='1093'> +1.4974000e+02 </wgt>
<wgt id='1094'> +1.5786000e+02 </wgt>
<wgt id='1095'> +1.4897000e+02 </wgt>
<wgt id='1096'> +1.4886000e+02 </wgt>
<wgt id='1097'> +1.4981000e+02 </wgt>
<wgt id='1098'> +1.5304000e+02 </wgt>
<wgt id='1099'> +1.5162000e+02 </wgt>
<wgt id='1100'> +1.5259000e+02 </wgt>
<wgt id='1101'> +1.4579000e+02 </wgt>
<wgt id='1102'> +1.4720000e+02 </wgt>
<wgt id='1103'> +1.4823000e+02 </wgt>
<wgt id='1104'> +1.5375000e+02 </wgt>
<wgt id='1105'> +1.5146096e+02 </wgt>
<wgt id='1106'> +5.9571744e+01 </wgt>
<wgt id='1107'> +1.0053786e+02 </wgt>
<wgt id='1108'> +9.1387995e+01 </wgt>
<wgt id='1109'> +7.1696653e+01 </wgt>
<wgt id='1110'> +1.2167497e+02 </wgt>
<wgt id='1111'> +6.0315710e+01 </wgt>
<wgt id='1112'> +4.7592081e+01 </wgt>
<wgt id='1113'> +7.9806559e+01 </wgt>
<wgt id='1114'> +7.7400163e+01 </wgt>
<wgt id='1115'> +8.6887477e+01 </wgt>
<wgt id='1116'> +7.8345392e+01 </wgt>
<wgt id='1117'> +8.1543795e+01 </wgt>
<wgt id='1118'> +7.9835598e+01 </wgt>
<wgt id='1119'> +7.5575321e+01 </wgt>
<wgt id='1120'> +7.5135604e+01 </wgt>
<wgt id='1121'> +7.4753622e+01 </wgt>
<wgt id='1122'> +7.6533138e+01 </wgt>
<wgt id='1123'> +7.6968890e+01 </wgt>
<wgt id='1124'> +7.5088103e+01 </wgt>
<wgt id='1125'> +7.7931977e+01 </wgt>
<wgt id='1126'> +7.5237195e+01 </wgt>
<wgt id='1127'> +7.5589440e+01 </wgt>
<wgt id='1128'> +7.8609641e+01 </wgt>
<wgt id='1129'> +7.5438815e+01 </wgt>
<wgt id='1130'> +7.4567581e+01 </wgt>
<wgt id='1131'> +7.9187497e+01 </wgt>
<wgt id='1132'> +7.8085432e+01 </wgt>
<wgt id='1133'> +7.7154402e+01 </wgt>
<wgt id='1134'> +7.2146666e+01 </wgt>
<wgt id='1135'> +7.8663557e+01 </wgt>
<wgt id='1136'> +8.3238008e+01 </wgt>
<wgt id='1137'> +7.8326182e+01 </wgt>
<wgt id='1138'> +7.6564990e+01 </wgt>
<wgt id='1139'> +7.5078742e+01 </wgt>
<wgt id='1140'> +7.7545896e+01 </wgt>
<wgt id='1141'> +8.6199351e+01 </wgt>
<wgt id='1142'> +7.7893205e+01 </wgt>
<wgt id='1143'> +7.3882264e+01 </wgt>
<wgt id='1144'> +7.6835645e+01 </wgt>
<wgt id='1145'> +8.1783889e+01 </wgt>
<wgt id='1146'> +7.5646089e+01 </wgt>
<wgt id='1147'> +7.9012314e+01 </wgt>
<wgt id='1148'> +7.8550581e+01 </wgt>
<wgt id='1149'> +7.8298391e+01 </wgt>
<wgt id='1150'> +7.9471138e+01 </wgt>
<wgt id='1151'> +7.8787290e+01 </wgt>
<wgt id='1152'> +7.4342978e+01 </wgt>
<wgt id='1153'> +7.7526514e+01 </wgt>
<wgt id='1154'> +7.5999686e+01 </wgt>
<wgt id='1155'> +7.8612946e+01 </wgt>
<wgt id='1156'> +7.7484604e+01 </wgt>
<wgt id='1157'> +8.2690657e+01 </wgt>
<wgt id='1158'> +7.7889282e+01 </wgt>
<wgt id='1159'> +7.3932040e+01 </wgt>
<wgt id='1160'> +7.8411054e+01 </wgt>
<wgt id='1161'> +7.7524763e+01 </wgt>
<wgt id='1162'> +7.7949242e+01 </wgt>
<wgt id='1163'> +7.6471376e+01 </wgt>
<wgt id='1164'> +7.7090614e+01 </wgt>
<wgt id='1165'> +7.7703264e+01 </wgt>
<wgt id='1166'> +7.4381930e+01 </wgt>
<wgt id='1167'> +7.5740432e+01 </wgt>
<wgt id='1168'> +7.8785292e+01 </wgt>
<wgt id='1169'> +8.3439847e+01 </wgt>
<wgt id='1170'> +7.9045735e+01 </wgt>
<wgt id='1171'> +8.1604078e+01 </wgt>
<wgt id='1172'> +7.9776811e+01 </wgt>
<wgt id='1173'> +7.4953469e+01 </wgt>
<wgt id='1174'> +7.9659903e+01 </wgt>
<wgt id='1175'> +7.9608373e+01 </wgt>
<wgt id='1176'> +7.6976309e+01 </wgt>
<wgt id='1177'> +7.8685219e+01 </wgt>
<wgt id='1178'> +7.3599153e+01 </wgt>
<wgt id='1179'> +7.6808823e+01 </wgt>
<wgt id='1180'> +7.3318786e+01 </wgt>
<wgt id='1181'> +7.8690985e+01 </wgt>
<wgt id='1182'> +7.7492487e+01 </wgt>
<wgt id='1183'> +7.7273811e+01 </wgt>
<wgt id='1184'> +7.8703525e+01 </wgt>
<wgt id='1185'> +7.7551034e+01 </wgt>
<wgt id='1186'> +7.1995043e+01 </wgt>
<wgt id='1187'> +6.8934580e+01 </wgt>
<wgt id='1188'> +7.1979859e+01 </wgt>
<wgt id='1189'> +7.4231823e+01 </wgt>
<wgt id='1190'> +7.9093502e+01 </wgt>
<wgt id='1191'> +7.8316431e+01 </wgt>
<wgt id='1192'> +7.5195081e+01 </wgt>
<wgt id='1193'> +7.4038142e+01 </wgt>
<wgt id='1194'> +8.0913142e+01 </wgt>
<wgt id='1195'> +8.1589412e+01 </wgt>
<wgt id='1196'> +7.4567581e+01 </wgt>
<wgt id='1197'> +7.4295398e+01 </wgt>
<wgt id='1198'> +7.7592968e+01 </wgt>
<wgt id='1199'> +7.7946900e+01 </wgt>
<wgt id='1200'> +8.3293253e+01 </wgt>
<wgt id='1201'> +7.7158209e+01 </wgt>
<wgt id='1202'> +8.1173325e+01 </wgt>
<wgt id='1203'> +6.7924272e+01 </wgt>
<wgt id='1204'> +7.5878401e+01 </wgt>
<wgt id='1205'> +7.6908776e+01 </wgt>
<wgt id='1206'> +6.8316099e+01 </wgt>
<wgt id='1207'> +7.5484856e+01 </wgt>
<wgt id='1208'> +7.4927855e+01 </wgt>
<wgt id='1209'> +7.9911467e+01 </wgt>
<wgt id='1210'> +7.7606043e+01 </wgt>
<wgt id='1211'> +8.1455568e+01 </wgt>
<wgt id='1212'> +7.9636073e+01 </wgt>
<wgt id='1213'> +8.1130533e+01 </wgt>
<wgt id='1214'> +7.8254032e+01 </wgt>
<wgt id='1215'> +7.4033756e+01 </wgt>
<wgt id='1216'> +8.0532295e+01 </wgt>
<wgt id='1217'> +8.0556312e+01 </wgt>
<wgt id='1218'> +8.0480062e+01 </wgt>
<wgt id='1219'> +8.0270074e+01 </wgt>
<wgt id='1220'> +8.0898603e+01 </wgt>
<wgt id='1221'> +8.0115816e+01 </wgt>
<wgt id='1222'> +8.0416398e+01 </wgt>
<wgt id='1223'> +8.0085923e+01 </wgt>
<wgt id='1224'> +8.0491288e+01 </wgt>
<wgt id='1225'> +8.0102299e+01 </wgt>
<wgt id='1226'> +8.0125305e+01 </wgt>
<wgt id='1227'> +8.0675261e+01 </wgt>
<wgt id='1228'> +8.0636112e+01 </wgt>
<wgt id='1229'> +8.0630526e+01 </wgt>
<wgt id='1230'> +8.0747499e+01 </wgt>
<wgt id='1231'> +8.0248339e+01 </wgt>
<wgt id='1232'> +8.0617022e+01 </wgt>
<wgt id='1233'> +8.0359239e+01 </wgt>
<wgt id='1234'> +8.0610664e+01 </wgt>
<wgt id='1235'> +8.0524593e+01 </wgt>
<wgt id='1236'> +8.0590257e+01 </wgt>
<wgt id='1237'> +8.0713555e+01 </wgt>
<wgt id='1238'> +8.0484866e+01 </wgt>
<wgt id='1239'> +8.0653696e+01 </wgt>
<wgt id='1240'> +8.0731636e+01 </wgt>
<wgt id='1241'> +8.0500430e+01 </wgt>
<wgt id='1242'> +8.0368848e+01 </wgt>
<wgt id='1243'> +8.0873703e+01 </wgt>
<wgt id='1244'> +8.0781930e+01 </wgt>
<wgt id='1245'> +8.0559914e+01 </wgt>
<wgt id='1246'> +8.0320748e+01 </wgt>
<wgt id='1247'> +8.1097528e+01 </wgt>
<wgt id='1248'> +7.9849759e+01 </wgt>
<wgt id='1249'> +8.0610279e+01 </wgt>
<wgt id='1250'> +8.0418667e+01 </wgt>
<wgt id='1251'> +7.9887133e+01 </wgt>
<wgt id='1252'> +7.9773477e+01 </wgt>
<wgt id='1253'> +8.0330158e+01 </wgt>
<wgt id='1254'> +8.0029284e+01 </wgt>
<wgt id='1255'> +8.0349293e+01 </wgt>
<wgt id='1256'> +8.0268371e+01 </wgt>
<wgt id='1257'> +8.0046434e+01 </wgt>
<wgt id='1258'> +8.0279110e+01 </wgt>
<wgt id='1259'> +8.0983265e+01 </wgt>
<wgt id='1260'> +8.0061676e+01 </wgt>
<wgt id='1261'> +8.0235140e+01 </wgt>
<wgt id='1262'> +8.0283987e+01 </wgt>
<wgt id='1263'> +8.0716407e+01 </wgt>
<wgt id='1264'> +8.0496689e+01 </wgt>
<wgt id='1265'> +8.0355946e+01 </wgt>
<wgt id='1266'> +8.0989678e+01 </wgt>
<wgt id='1267'> +8.1108170e+01 </wgt>
<wgt id='1268'> +8.0559827e+01 </wgt>
<wgt id='1269'> +8.0458892e+01 </wgt>
<wgt id='1270'> +8.0661970e+01 </wgt>
<wgt id='1271'> +8.0407848e+01 </wgt>
<wgt id='1272'> +8.0472971e+01 </wgt>
<wgt id='1273'> +8.0122713e+01 </wgt>
<wgt id='1274'> +8.0150955e+01 </wgt>
<wgt id='1275'> +8.0892293e+01 </wgt>
<wgt id='1276'> +8.0945802e+01 </wgt>
<wgt id='1277'> +8.0559389e+01 </wgt>
<wgt id='1278'> +8.0483596e+01 </wgt>
<wgt id='1279'> +8.0846544e+01 </wgt>
<wgt id='1280'> +8.0555390e+01 </wgt>
<wgt id='1281'> +8.0411176e+01 </wgt>
<wgt id='1282'> +8.0681119e+01 </wgt>
<wgt id='1283'> +8.0597068e+01 </wgt>
<wgt id='1284'> +8.0543619e+01 </wgt>
<wgt id='1285'> +8.0428854e+01 </wgt>
<wgt id='1286'> +8.0211781e+01 </wgt>
<wgt id='1287'> +8.0496046e+01 </wgt>
<wgt id='1288'> +8.0543589e+01 </wgt>
<wgt id='1289'> +8.0238116e+01 </wgt>
<wgt id='1290'> +8.0461111e+01 </wgt>
<wgt id='1291'> +8.0323730e+01 </wgt>
<wgt id='1292'> +8.0423710e+01 </wgt>
<wgt id='1293'> +8.0613689e+01 </wgt>
<wgt id='1294'> +8.0619714e+01 </wgt>
<wgt id='1295'> +8.0445440e+01 </wgt>
<wgt id='1296'> +8.0528063e+01 </wgt>
<wgt id='1297'> +8.0648823e+01 </wgt>
<wgt id='1298'> +8.0543782e+01 </wgt>
<wgt id='1299'> +8.0650974e+01 </wgt>
<wgt id='1300'> +8.0341422e+01 </wgt>
<wgt id='1301'> +8.0517720e+01 </wgt>
<wgt id='1302'> +8.0531895e+01 </wgt>
<wgt id='1303'> +8.0613101e+01 </wgt>
<wgt id='1304'> +8.0422425e+01 </wgt>
<wgt id='1305'> +8.0271620e+01 </wgt>
<wgt id='1306'> +8.0559280e+01 </wgt>
<wgt id='1307'> +8.0646423e+01 </wgt>
<wgt id='1308'> +8.0333316e+01 </wgt>
<wgt id='1309'> +8.0536472e+01 </wgt>
<wgt id='1310'> +8.0594725e+01 </wgt>
<wgt id='1311'> +8.0664839e+01 </wgt>
<wgt id='1312'> +8.0424739e+01 </wgt>
<wgt id='1313'> +8.0527094e+01 </wgt>
<wgt id='1314'> +8.0642048e+01 </wgt>
<wgt id='1315'> +8.0728994e+01 </wgt>
<wgt id='1316'> +8.0330811e+01 </wgt>
<wgt id='1317'> +7.8703460e+01 </wgt>
<wgt id='1318'> +8.2944924e+01 </wgt>
<wgt id='1319'> +1.0980153e+02 </wgt>
<wgt id='1320'> +7.7050194e+01 </wgt>
<wgt id='1321'> +7.7549824e+01 </wgt>
<wgt id='1322'> +7.7389444e+01 </wgt>
<wgt id='1323'> +7.6019694e+01 </wgt>
<wgt id='1324'> +7.7892872e+01 </wgt>
<wgt id='1325'> +7.9231330e+01 </wgt>
<wgt id='1326'> +7.5994062e+01 </wgt>
<wgt id='1327'> +7.7399867e+01 </wgt>
<wgt id='1328'> +7.6163999e+01 </wgt>
<wgt id='1329'> +7.6413036e+01 </wgt>
<wgt id='1330'> +7.7256933e+01 </wgt>
<wgt id='1331'> +7.3937190e+01 </wgt>
<wgt id='1332'> +7.9476352e+01 </wgt>
<wgt id='1333'> +7.5878490e+01 </wgt>
<wgt id='1334'> +7.6934972e+01 </wgt>
<wgt id='1335'> +7.9016539e+01 </wgt>
<wgt id='1336'> +7.4420077e+01 </wgt>
<wgt id='1337'> +7.8966974e+01 </wgt>
<wgt id='1338'> +7.4830503e+01 </wgt>
<wgt id='1339'> +7.7211066e+01 </wgt>
<wgt id='1340'> +7.6757857e+01 </wgt>
<wgt id='1341'> +7.7332189e+01 </wgt>
<wgt id='1342'> +7.6311212e+01 </wgt>
<wgt id='1343'> +7.6441114e+01 </wgt>
<wgt id='1344'> +7.7485745e+01 </wgt>
<wgt id='1345'> +7.4500871e+01 </wgt>
<wgt id='1346'> +7.9323788e+01 </wgt>
<wgt id='1347'> +7.6335479e+01 </wgt>
<wgt id='1348'> +7.7969394e+01 </wgt>
<wgt id='1349'> +7.4716007e+01 </wgt>
<wgt id='1350'> +7.7857825e+01 </wgt>
<wgt id='1351'> +7.6331345e+01 </wgt>
<wgt id='1352'> +7.7966400e+01 </wgt>
<wgt id='1353'> +7.7606189e+01 </wgt>
<wgt id='1354'> +7.5832511e+01 </wgt>
<wgt id='1355'> +7.8327066e+01 </wgt>
<wgt id='1356'> +7.5910293e+01 </wgt>
<wgt id='1357'> +7.6240754e+01 </wgt>
<wgt id='1358'> +7.7652753e+01 </wgt>
<wgt id='1359'> +7.5316132e+01 </wgt>
<wgt id='1360'> +7.7655581e+01 </wgt>
<wgt id='1361'> +7.6047262e+01 </wgt>
<wgt id='1362'> +7.8373248e+01 </wgt>
<wgt id='1363'> +7.6718678e+01 </wgt>
<wgt id='1364'> +7.6723804e+01 </wgt>
<wgt id='1365'> +7.6810864e+01 </wgt>
<wgt id='1366'> +7.5548148e+01 </wgt>
<wgt id='1367'> +7.5041005e+01 </wgt>
<wgt id='1368'> +7.7449501e+01 </wgt>
<wgt id='1369'> +7.5820879e+01 </wgt>
<wgt id='1370'> +7.7650015e+01 </wgt>
<wgt id='1371'> +7.6059793e+01 </wgt>
<wgt id='1372'> +7.5428970e+01 </wgt>
<wgt id='1373'> +7.5995846e+01 </wgt>
<wgt id='1374'> +7.5487247e+01 </wgt>
<wgt id='1375'> +7.7663570e+01 </wgt>
<wgt id='1376'> +7.8055802e+01 </wgt>
<wgt id='1377'> +7.4117536e+01 </wgt>
<wgt id='1378'> +7.9987582e+01 </wgt>
<wgt id='1379'> +7.2757089e+01 </wgt>
<wgt id='1380'> +7.0253592e+01 </wgt>
<wgt id='1381'> +7.5382692e+01 </wgt>
<wgt id='1382'> +8.9834164e+01 </wgt>
<wgt id='1383'> +7.8974692e+01 </wgt>
<wgt id='1384'> +7.6196200e+01 </wgt>
<wgt id='1385'> +1.2617459e+02 </wgt>
<wgt id='1386'> +1.2686011e+02 </wgt>
<wgt id='1387'> +1.2540863e+02 </wgt>
<wgt id='1388'> +1.2662127e+02 </wgt>
<wgt id='1389'> +1.2536745e+02 </wgt>
<wgt id='1390'> +1.2670917e+02 </wgt>
<wgt id='1391'> +1.2553074e+02 </wgt>
<wgt id='1392'> +1.2721881e+02 </wgt>
<wgt id='1393'> +1.2543716e+02 </wgt>
<wgt id='1394'> +1.2586954e+02 </wgt>
<wgt id='1395'> +1.2654498e+02 </wgt>
<wgt id='1396'> +1.2485974e+02 </wgt>
<wgt id='1397'> +1.2685461e+02 </wgt>
<wgt id='1398'> +1.2555303e+02 </wgt>
<wgt id='1399'> +1.2663648e+02 </wgt>
<wgt id='1400'> +1.2733196e+02 </wgt>
<wgt id='1401'> +1.2527613e+02 </wgt>
<wgt id='1402'> +1.2697328e+02 </wgt>
<wgt id='1403'> +1.2580186e+02 </wgt>
<wgt id='1404'> +1.2858365e+02 </wgt>
<wgt id='1405'> +1.2497384e+02 </wgt>
<wgt id='1406'> +1.2641485e+02 </wgt>
<wgt id='1407'> +1.2572483e+02 </wgt>
<wgt id='1408'> +1.2527224e+02 </wgt>
<wgt id='1409'> +1.2797419e+02 </wgt>
<wgt id='1410'> +1.2683962e+02 </wgt>
<wgt id='1411'> +1.2443587e+02 </wgt>
<wgt id='1412'> +1.2646347e+02 </wgt>
<wgt id='1413'> +1.2557311e+02 </wgt>
<wgt id='1414'> +1.2586857e+02 </wgt>
<wgt id='1415'> +1.2643127e+02 </wgt>
<wgt id='1416'> +1.2609937e+02 </wgt>
<wgt id='1417'> +1.2667441e+02 </wgt>
<wgt id='1418'> +1.2637248e+02 </wgt>
<wgt id='1419'> +1.2577516e+02 </wgt>
<wgt id='1420'> +1.2569669e+02 </wgt>
<wgt id='1421'> +1.2599791e+02 </wgt>
<wgt id='1422'> +1.2575171e+02 </wgt>
<wgt id='1423'> +1.2678841e+02 </wgt>
<wgt id='1424'> +1.2693016e+02 </wgt>
<wgt id='1425'> +1.2462340e+02 </wgt>
<wgt id='1426'> +1.2735724e+02 </wgt>
<wgt id='1427'> +1.2552962e+02 </wgt>
<wgt id='1428'> +1.2508161e+02 </wgt>
<wgt id='1429'> +1.2505430e+02 </wgt>
<wgt id='1430'> +1.2710774e+02 </wgt>
<wgt id='1431'> +1.2612750e+02 </wgt>
<wgt id='1432'> +1.2651872e+02 </wgt>
<wgt id='1433'> +1.2682757e+02 </wgt>
<wgt id='1434'> +1.2756983e+02 </wgt>
<wgt id='1435'> +1.2768563e+02 </wgt>
<wgt id='1436'> +6.8393666e+01 </wgt>
<wgt id='1437'> +6.8456457e+01 </wgt>
<wgt id='1438'> +6.8111994e+01 </wgt>
<wgt id='1439'> +6.8395298e+01 </wgt>
<wgt id='1440'> +6.8391469e+01 </wgt>
<wgt id='1441'> +6.8743675e+01 </wgt>
<wgt id='1442'> +6.8161270e+01 </wgt>
<wgt id='1443'> +6.8708008e+01 </wgt>
<wgt id='1444'> +6.8088252e+01 </wgt>
<wgt id='1445'> +6.7857288e+01 </wgt>
<wgt id='1446'> +6.8802424e+01 </wgt>
<wgt id='1447'> +6.8439475e+01 </wgt>
<wgt id='1448'> +6.8344323e+01 </wgt>
<wgt id='1449'> +6.8960700e+01 </wgt>
<wgt id='1450'> +6.8532531e+01 </wgt>
<wgt id='1451'> +6.8492113e+01 </wgt>
<wgt id='1452'> +6.8208145e+01 </wgt>
<wgt id='1453'> +6.8459053e+01 </wgt>
<wgt id='1454'> +6.8569937e+01 </wgt>
<wgt id='1455'> +6.8416777e+01 </wgt>
<wgt id='1456'> +6.8727997e+01 </wgt>
<wgt id='1457'> +6.8369599e+01 </wgt>
<wgt id='1458'> +6.8614257e+01 </wgt>
<wgt id='1459'> +6.8959724e+01 </wgt>
<wgt id='1460'> +6.8535415e+01 </wgt>
<wgt id='1461'> +6.7956598e+01 </wgt>
<wgt id='1462'> +6.8828330e+01 </wgt>
<wgt id='1463'> +6.7216833e+01 </wgt>
<wgt id='1464'> +6.8042904e+01 </wgt>
<wgt id='1465'> +7.5046193e+01 </wgt>
<wgt id='1466'> +7.7267264e+01 </wgt>
<wgt id='1467'> +7.7506730e+01 </wgt>
<wgt id='1468'> +7.6892238e+01 </wgt>
<wgt id='1469'> +7.7698417e+01 </wgt>
<wgt id='1470'> +7.7400166e+01 </wgt>
<wgt id='1471'> +7.7360760e+01 </wgt>
<wgt id='1472'> +7.6772076e+01 </wgt>
<wgt id='1473'> +7.8198708e+01 </wgt>
<wgt id='1474'> +7.8391910e+01 </wgt>
<wgt id='1475'> +7.7191359e+01 </wgt>
<wgt id='1476'> +7.7879812e+01 </wgt>
<wgt id='1477'> +7.6890524e+01 </wgt>
<wgt id='1478'> +7.7350073e+01 </wgt>
<wgt id='1479'> +7.6375605e+01 </wgt>
<wgt id='1480'> +7.7292550e+01 </wgt>
<wgt id='1481'> +7.7293861e+01 </wgt>
<wgt id='1482'> +7.6820476e+01 </wgt>
<wgt id='1483'> +7.7983746e+01 </wgt>
<wgt id='1484'> +7.7730429e+01 </wgt>
<wgt id='1485'> +7.6971223e+01 </wgt>
<wgt id='1486'> +7.7572598e+01 </wgt>
<wgt id='1487'> +7.7162941e+01 </wgt>
<wgt id='1488'> +7.7452783e+01 </wgt>
<wgt id='1489'> +7.7941954e+01 </wgt>
<wgt id='1490'> +7.6977855e+01 </wgt>
<wgt id='1491'> +7.6071069e+01 </wgt>
<wgt id='1492'> +7.6874278e+01 </wgt>
<wgt id='1493'> +7.8066943e+01 </wgt>
<wgt id='1494'> +7.6483914e+01 </wgt>
<wgt id='1495'> +7.7280545e+01 </wgt>
<wgt id='1496'> +7.8073914e+01 </wgt>
<wgt id='1497'> +7.7001393e+01 </wgt>
<wgt id='1498'> +7.7721897e+01 </wgt>
<wgt id='1499'> +7.7812462e+01 </wgt>
<wgt id='1500'> +7.7425716e+01 </wgt>
<wgt id='1501'> +7.7732870e+01 </wgt>
<wgt id='1502'> +7.7134322e+01 </wgt>
<wgt id='1503'> +7.7436849e+01 </wgt>
<wgt id='1504'> +7.7309017e+01 </wgt>
<wgt id='1505'> +7.7511769e+01 </wgt>
<wgt id='1506'> +7.7371304e+01 </wgt>
<wgt id='1507'> +7.7419330e+01 </wgt>
<wgt id='1508'> +7.7652350e+01 </wgt>
<wgt id='1509'> +7.7118225e+01 </wgt>
<wgt id='1510'> +7.7228846e+01 </wgt>
<wgt id='1511'> +7.7644586e+01 </wgt>
<wgt id='1512'> +7.7379365e+01 </wgt>
<wgt id='1513'> +7.7040052e+01 </wgt>
<wgt id='1514'> +7.7156442e+01 </wgt>
<wgt id='1515'> +7.7145233e+01 </wgt>
<wgt id='1516'> +7.7289269e+01 </wgt>
<wgt id='1517'> +7.7330430e+01 </wgt>
<wgt id='1518'> +7.7577725e+01 </wgt>
<wgt id='1519'> +7.7155112e+01 </wgt>
<wgt id='1520'> +7.7372022e+01 </wgt>
<wgt id='1521'> +7.7260867e+01 </wgt>
<wgt id='1522'> +7.7287585e+01 </wgt>
<wgt id='1523'> +7.7232559e+01 </wgt>
<wgt id='1524'> +7.7269058e+01 </wgt>
<wgt id='1525'> +7.6699761e+01 </wgt>
<wgt id='1526'> +7.7173844e+01 </wgt>
<wgt id='1527'> +7.7559096e+01 </wgt>
<wgt id='1528'> +7.6753668e+01 </wgt>
<wgt id='1529'> +7.6879891e+01 </wgt>
<wgt id='1530'> +7.7280243e+01 </wgt>
<wgt id='1531'> +7.7233658e+01 </wgt>
<wgt id='1532'> +7.6972086e+01 </wgt>
<wgt id='1533'> +7.7339357e+01 </wgt>
<wgt id='1534'> +7.7402879e+01 </wgt>
<wgt id='1535'> +7.7359115e+01 </wgt>
<wgt id='1536'> +7.7014881e+01 </wgt>
<wgt id='1537'> +7.7372875e+01 </wgt>
<wgt id='1538'> +7.7491917e+01 </wgt>
<wgt id='1539'> +7.7382524e+01 </wgt>
<wgt id='1540'> +7.7297339e+01 </wgt>
<wgt id='1541'> +7.7238945e+01 </wgt>
<wgt id='1542'> +7.7331707e+01 </wgt>
<wgt id='1543'> +7.7318119e+01 </wgt>
<wgt id='1544'> +7.7219367e+01 </wgt>
<wgt id='1545'> +7.7579400e+01 </wgt>
<wgt id='1546'> +7.7543345e+01 </wgt>
<wgt id='1547'> +7.7270771e+01 </wgt>
<wgt id='1548'> +7.7149107e+01 </wgt>
<wgt id='1549'> +7.7194814e+01 </wgt>
<wgt id='1550'> +7.7208371e+01 </wgt>
<wgt id='1551'> +7.7222266e+01 </wgt>
<wgt id='1552'> +7.7342374e+01 </wgt>
<wgt id='1553'> +7.7253582e+01 </wgt>
<wgt id='1554'> +7.7169040e+01 </wgt>
<wgt id='1555'> +7.7228947e+01 </wgt>
<wgt id='1556'> +7.7287076e+01 </wgt>
<wgt id='1557'> +7.7239885e+01 </wgt>
<wgt id='1558'> +7.7256045e+01 </wgt>
<wgt id='1559'> +7.7144799e+01 </wgt>
<wgt id='1560'> +7.7216975e+01 </wgt>
<wgt id='1561'> +7.7223216e+01 </wgt>
<wgt id='1562'> +7.7285139e+01 </wgt>
<wgt id='1563'> +7.7291839e+01 </wgt>
<wgt id='1564'> +7.7282536e+01 </wgt>
<wgt id='1565'> +7.7373445e+01 </wgt>
<wgt id='1566'> +7.7306818e+01 </wgt>
<wgt id='1567'> +7.4948364e+01 </wgt>
<wgt id='1568'> +7.9371238e+01 </wgt>
<wgt id='1569'> +7.4484968e+01 </wgt>
<wgt id='1570'> +7.4821426e+01 </wgt>
<wgt id='1571'> +7.4425568e+01 </wgt>
<wgt id='1572'> +7.4690928e+01 </wgt>
<wgt id='1573'> +7.4784949e+01 </wgt>
<wgt id='1574'> +7.4296247e+01 </wgt>
<wgt id='1575'> +7.4636115e+01 </wgt>
<wgt id='1576'> +7.5188925e+01 </wgt>
<wgt id='1577'> +7.4846129e+01 </wgt>
<wgt id='1578'> +7.4347536e+01 </wgt>
<wgt id='1579'> +7.4324019e+01 </wgt>
<wgt id='1580'> +7.4744734e+01 </wgt>
<wgt id='1581'> +7.3859099e+01 </wgt>
<wgt id='1582'> +7.4181625e+01 </wgt>
<wgt id='1583'> +7.4393865e+01 </wgt>
<wgt id='1584'> +7.5715437e+01 </wgt>
<wgt id='1585'> +7.4052751e+01 </wgt>
<wgt id='1586'> +7.4437723e+01 </wgt>
<wgt id='1587'> +7.5140284e+01 </wgt>
<wgt id='1588'> +7.3610219e+01 </wgt>
<wgt id='1589'> +7.3976594e+01 </wgt>
<wgt id='1590'> +7.4762081e+01 </wgt>
<wgt id='1591'> +7.3601681e+01 </wgt>
<wgt id='1592'> +7.4362579e+01 </wgt>
<wgt id='1593'> +7.4888377e+01 </wgt>
<wgt id='1594'> +7.4547251e+01 </wgt>
<wgt id='1595'> +7.4326697e+01 </wgt>
<wgt id='1596'> +7.4378085e+01 </wgt>
<wgt id='1597'> +7.4278377e+01 </wgt>
<wgt id='1598'> +7.4228106e+01 </wgt>
<wgt id='1599'> +7.4479929e+01 </wgt>
<wgt id='1600'> +7.3620510e+01 </wgt>
<wgt id='1601'> +7.4433780e+01 </wgt>
<wgt id='1602'> +7.3660138e+01 </wgt>
<wgt id='1603'> +7.3953938e+01 </wgt>
<wgt id='1604'> +7.4831856e+01 </wgt>
<wgt id='1605'> +7.4715858e+01 </wgt>
<wgt id='1606'> +7.4414838e+01 </wgt>
<wgt id='1607'> +7.4439498e+01 </wgt>
<wgt id='1608'> +7.4837734e+01 </wgt>
<wgt id='1609'> +7.4160548e+01 </wgt>
<wgt id='1610'> +7.4335795e+01 </wgt>
<wgt id='1611'> +7.4172599e+01 </wgt>
<wgt id='1612'> +7.4414141e+01 </wgt>
<wgt id='1613'> +7.4354150e+01 </wgt>
<wgt id='1614'> +7.4672742e+01 </wgt>
<wgt id='1615'> +7.4272002e+01 </wgt>
<wgt id='1616'> +7.3917724e+01 </wgt>
<wgt id='1617'> +7.4308580e+01 </wgt>
<wgt id='1618'> +7.4577944e+01 </wgt>
<wgt id='1619'> +7.4482627e+01 </wgt>
<wgt id='1620'> +7.4455494e+01 </wgt>
<wgt id='1621'> +7.4502400e+01 </wgt>
<wgt id='1622'> +7.4674480e+01 </wgt>
<wgt id='1623'> +7.4438929e+01 </wgt>
<wgt id='1624'> +7.4613574e+01 </wgt>
<wgt id='1625'> +7.4721599e+01 </wgt>
<wgt id='1626'> +7.4228631e+01 </wgt>
<wgt id='1627'> +7.4477637e+01 </wgt>
<wgt id='1628'> +7.4364860e+01 </wgt>
<wgt id='1629'> +7.4666154e+01 </wgt>
<wgt id='1630'> +7.4280916e+01 </wgt>
<wgt id='1631'> +7.4448167e+01 </wgt>
<wgt id='1632'> +7.4625330e+01 </wgt>
<wgt id='1633'> +7.4094997e+01 </wgt>
<wgt id='1634'> +7.5184028e+01 </wgt>
<wgt id='1635'> +7.4166759e+01 </wgt>
<wgt id='1636'> +7.4635772e+01 </wgt>
<wgt id='1637'> +7.4869715e+01 </wgt>
<wgt id='1638'> +7.4507442e+01 </wgt>
<wgt id='1639'> +7.4498318e+01 </wgt>
<wgt id='1640'> +7.4591222e+01 </wgt>
<wgt id='1641'> +7.4772085e+01 </wgt>
<wgt id='1642'> +7.4408433e+01 </wgt>
<wgt id='1643'> +7.4499276e+01 </wgt>
<wgt id='1644'> +7.4429628e+01 </wgt>
<wgt id='1645'> +7.4415495e+01 </wgt>
<wgt id='1646'> +7.4455396e+01 </wgt>
<wgt id='1647'> +7.4319725e+01 </wgt>
<wgt id='1648'> +7.4283704e+01 </wgt>
<wgt id='1649'> +7.4683938e+01 </wgt>
<wgt id='1650'> +7.4507885e+01 </wgt>
<wgt id='1651'> +7.4519556e+01 </wgt>
<wgt id='1652'> +7.4409561e+01 </wgt>
<wgt id='1653'> +7.4412591e+01 </wgt>
<wgt id='1654'> +7.4441812e+01 </wgt>
<wgt id='1655'> +7.4495829e+01 </wgt>
<wgt id='1656'> +7.4402496e+01 </wgt>
<wgt id='1657'> +7.4542010e+01 </wgt>
<wgt id='1658'> +7.4515864e+01 </wgt>
<wgt id='1659'> +7.4488431e+01 </wgt>
<wgt id='1660'> +7.4462645e+01 </wgt>
<wgt id='1661'> +7.4417956e+01 </wgt>
<wgt id='1662'> +7.4524811e+01 </wgt>
<wgt id='1663'> +7.4344862e+01 </wgt>
<wgt id='1664'> +7.4473381e+01 </wgt>
<wgt id='1665'> +7.4564559e+01 </wgt>
<wgt id='1666'> +7.4475022e+01 </wgt>
<wgt id='1667'> +7.4409509e+01 </wgt>
<wgt id='1668'> +7.4451339e+01 </wgt>
<wgt id='1669'> +7.4478913e+01 </wgt>
<wgt id='1670'> +7.2779887e+01 </wgt>
<wgt id='1671'> +7.6370340e+01 </wgt>
<wgt id='1672'> +7.7336307e+01 </wgt>
<wgt id='1673'> +7.8703040e+01 </wgt>
<wgt id='1674'> +7.6550298e+01 </wgt>
<wgt id='1675'> +7.7306507e+01 </wgt>
<wgt id='1676'> +7.8135574e+01 </wgt>
<wgt id='1677'> +7.7651072e+01 </wgt>
<wgt id='1678'> +7.8477957e+01 </wgt>
<wgt id='1679'> +7.7325625e+01 </wgt>
<wgt id='1680'> +7.7150083e+01 </wgt>
<wgt id='1681'> +7.7603340e+01 </wgt>
<wgt id='1682'> +7.7352552e+01 </wgt>
<wgt id='1683'> +7.7561368e+01 </wgt>
<wgt id='1684'> +7.6655380e+01 </wgt>
<wgt id='1685'> +7.7125348e+01 </wgt>
<wgt id='1686'> +7.6896988e+01 </wgt>
<wgt id='1687'> +7.7072710e+01 </wgt>
<wgt id='1688'> +7.7692204e+01 </wgt>
<wgt id='1689'> +7.6016621e+01 </wgt>
<wgt id='1690'> +7.7050120e+01 </wgt>
<wgt id='1691'> +7.7186489e+01 </wgt>
<wgt id='1692'> +7.8086352e+01 </wgt>
<wgt id='1693'> +7.7401699e+01 </wgt>
<wgt id='1694'> +7.7489149e+01 </wgt>
<wgt id='1695'> +7.7389965e+01 </wgt>
<wgt id='1696'> +7.7926396e+01 </wgt>
<wgt id='1697'> +7.7173372e+01 </wgt>
<wgt id='1698'> +7.7425917e+01 </wgt>
<wgt id='1699'> +7.5671045e+01 </wgt>
<wgt id='1700'> +7.7465854e+01 </wgt>
<wgt id='1701'> +7.7412893e+01 </wgt>
<wgt id='1702'> +7.7304386e+01 </wgt>
<wgt id='1703'> +7.4948364e+01 </wgt>
<wgt id='1704'> +7.9371238e+01 </wgt>
<wgt id='1705'> +7.4489037e+01 </wgt>
<wgt id='1706'> +7.5372606e+01 </wgt>
<wgt id='1707'> +7.5526882e+01 </wgt>
<wgt id='1708'> +7.4484916e+01 </wgt>
<wgt id='1709'> +7.4344937e+01 </wgt>
<wgt id='1710'> +7.4261941e+01 </wgt>
<wgt id='1711'> +7.4485545e+01 </wgt>
<wgt id='1712'> +7.4284126e+01 </wgt>
<wgt id='1713'> +7.4702683e+01 </wgt>
<wgt id='1714'> +7.3477974e+01 </wgt>
<wgt id='1715'> +7.5544879e+01 </wgt>
<wgt id='1716'> +7.5575661e+01 </wgt>
<wgt id='1717'> +7.4490652e+01 </wgt>
<wgt id='1718'> +7.4735457e+01 </wgt>
<wgt id='1719'> +7.4378042e+01 </wgt>
<wgt id='1720'> +7.5193576e+01 </wgt>
<wgt id='1721'> +7.4596116e+01 </wgt>
<wgt id='1722'> +7.4418601e+01 </wgt>
<wgt id='1723'> +7.4497091e+01 </wgt>
<wgt id='1724'> +7.4669261e+01 </wgt>
<wgt id='1725'> +7.4459772e+01 </wgt>
<wgt id='1726'> +7.4115917e+01 </wgt>
<wgt id='1727'> +7.4610302e+01 </wgt>
<wgt id='1728'> +7.4511676e+01 </wgt>
<wgt id='1729'> +7.4187587e+01 </wgt>
<wgt id='1730'> +7.4576075e+01 </wgt>
<wgt id='1731'> +7.2670937e+01 </wgt>
<wgt id='1732'> +7.4501342e+01 </wgt>
<wgt id='1733'> +7.4341903e+01 </wgt>
<wgt id='1734'> +7.4570589e+01 </wgt>
<wgt id='1735'> +7.4353947e+01 </wgt>
<wgt id='1736'> +7.2779887e+01 </wgt>
<wgt id='1737'> +7.6370340e+01 </wgt>
<wgt id='1738'> +9.5365911e+01 </wgt>
<wgt id='1739'> +9.5574699e+01 </wgt>
<wgt id='1740'> +9.5157420e+01 </wgt>
<wgt id='1741'> +9.5242866e+01 </wgt>
<wgt id='1742'> +9.5487177e+01 </wgt>
<wgt id='1743'> +9.5521134e+01 </wgt>
<wgt id='1744'> +9.5210637e+01 </wgt>
<wgt id='1745'> +9.4498074e+01 </wgt>
<wgt id='1746'> +9.6223080e+01 </wgt>
<wgt id='1747'> +9.6011067e+01 </wgt>
<wgt id='1748'> +9.4722533e+01 </wgt>
<wgt id='1749'> +9.5775130e+01 </wgt>
<wgt id='1750'> +9.4911750e+01 </wgt>
<wgt id='1751'> +9.5572237e+01 </wgt>
<wgt id='1752'> +9.5153359e+01 </wgt>
<wgt id='1753'> +9.5379555e+01 </wgt>
<wgt id='1754'> +9.5475892e+01 </wgt>
<wgt id='1755'> +9.5807339e+01 </wgt>
<wgt id='1756'> +9.4778893e+01 </wgt>
<wgt id='1757'> +9.5101957e+01 </wgt>
<wgt id='1758'> +9.5678896e+01 </wgt>
<wgt id='1759'> +9.7448169e+01 </wgt>
<wgt id='1760'> +9.3238631e+01 </wgt>
<wgt id='1761'> +9.5201862e+01 </wgt>
<wgt id='1762'> +9.5117204e+01 </wgt>
<wgt id='1763'> +9.3876780e+01 </wgt>
<wgt id='1764'> +9.7016650e+01 </wgt>
<wgt id='1765'> +9.3375489e+01 </wgt>
<wgt id='1766'> +9.6717813e+01 </wgt>
<wgt id='1767'> +9.5365911e+01 </wgt>
<wgt id='1768'> +9.5556265e+01 </wgt>
<wgt id='1769'> +9.5252069e+01 </wgt>
<wgt id='1770'> +9.5584944e+01 </wgt>
<wgt id='1771'> +9.5282993e+01 </wgt>
<wgt id='1772'> +9.5070952e+01 </wgt>
<wgt id='1773'> +9.4598944e+01 </wgt>
<wgt id='1774'> +9.4974464e+01 </wgt>
<wgt id='1775'> +9.5748223e+01 </wgt>
<wgt id='1776'> +9.4089492e+01 </wgt>
<wgt id='1777'> +9.6696490e+01 </wgt>
<wgt id='1778'> +9.5843860e+01 </wgt>
<wgt id='1779'> +9.6287547e+01 </wgt>
<wgt id='1780'> +1.0006961e+02 </wgt>
<wgt id='1781'> +8.1918113e+01 </wgt>
<wgt id='1782'> +8.2075603e+01 </wgt>
<wgt id='1783'> +8.1794060e+01 </wgt>
<wgt id='1784'> +8.1860154e+01 </wgt>
<wgt id='1785'> +8.2007961e+01 </wgt>
<wgt id='1786'> +8.2077183e+01 </wgt>
<wgt id='1787'> +8.1792400e+01 </wgt>
<wgt id='1788'> +8.1169070e+01 </wgt>
<wgt id='1789'> +8.2686076e+01 </wgt>
<wgt id='1790'> +8.2388166e+01 </wgt>
<wgt id='1791'> +8.1475000e+01 </wgt>
<wgt id='1792'> +8.1990632e+01 </wgt>
<wgt id='1793'> +8.1878913e+01 </wgt>
<wgt id='1794'> +8.1788714e+01 </wgt>
<wgt id='1795'> +8.2086988e+01 </wgt>
<wgt id='1796'> +8.1999496e+01 </wgt>
<wgt id='1797'> +8.2036870e+01 </wgt>
<wgt id='1798'> +8.1216206e+01 </wgt>
<wgt id='1799'> +8.2643511e+01 </wgt>
<wgt id='1800'> +8.2608160e+01 </wgt>
<wgt id='1801'> +8.1261706e+01 </wgt>
<wgt id='1802'> +7.9890110e+01 </wgt>
<wgt id='1803'> +8.3936959e+01 </wgt>
<wgt id='1804'> +8.0085426e+01 </wgt>
<wgt id='1805'> +8.3834153e+01 </wgt>
<wgt id='1806'> +8.1927619e+01 </wgt>
<wgt id='1807'> +8.1576776e+01 </wgt>
<wgt id='1808'> +8.1341291e+01 </wgt>
<wgt id='1809'> +8.1826253e+01 </wgt>
<wgt id='1810'> +8.1761011e+01 </wgt>
<wgt id='1811'> +8.1727765e+01 </wgt>
<wgt id='1812'> +8.2340172e+01 </wgt>
<wgt id='1813'> +8.1915662e+01 </wgt>
<wgt id='1814'> +8.1964617e+01 </wgt>
<wgt id='1815'> +7.7864051e+01 </wgt>
<wgt id='1816'> +8.4910240e+01 </wgt>
<wgt id='1817'> +8.1469152e+01 </wgt>
<wgt id='1818'> +8.2166130e+01 </wgt>
<wgt id='1819'> +8.1114104e+01 </wgt>
<wgt id='1820'> +8.0637365e+01 </wgt>
<wgt id='1821'> +8.2205521e+01 </wgt>
<wgt id='1822'> +8.3324433e+01 </wgt>
<wgt id='1823'> +8.6016594e+01 </wgt>
<wgt id='1824'> +7.5971824e+01 </wgt>
<wgt id='1825'> +7.5935551e+01 </wgt>
<wgt id='1826'> +7.5899086e+01 </wgt>
<wgt id='1827'> +7.5862712e+01 </wgt>
<wgt id='1828'> +7.5826639e+01 </wgt>
<wgt id='1829'> +7.5790037e+01 </wgt>
<wgt id='1830'> +7.5753428e+01 </wgt>
<wgt id='1831'> +7.5716880e+01 </wgt>
<wgt id='1832'> +7.5680903e+01 </wgt>
<wgt id='1833'> +7.5644298e+01 </wgt>
<wgt id='1834'> +7.5607626e+01 </wgt>
<wgt id='1835'> +7.5571500e+01 </wgt>
<wgt id='1836'> +7.5534950e+01 </wgt>
<wgt id='1837'> +7.5498755e+01 </wgt>
<wgt id='1838'> +7.5462836e+01 </wgt>
<wgt id='1839'> +7.5426076e+01 </wgt>
<wgt id='1840'> +7.5389535e+01 </wgt>
<wgt id='1841'> +7.5353254e+01 </wgt>
<wgt id='1842'> +7.5317193e+01 </wgt>
<wgt id='1843'> +7.5280629e+01 </wgt>
<wgt id='1844'> +7.5244291e+01 </wgt>
<wgt id='1845'> +7.5207981e+01 </wgt>
<wgt id='1846'> +7.5171624e+01 </wgt>
<wgt id='1847'> +7.5135366e+01 </wgt>
<wgt id='1848'> +7.5099217e+01 </wgt>
<wgt id='1849'> +7.5062602e+01 </wgt>
<wgt id='1850'> +7.5026270e+01 </wgt>
<wgt id='1851'> +7.4990367e+01 </wgt>
<wgt id='1852'> +7.4954051e+01 </wgt>
<wgt id='1853'> +7.4917719e+01 </wgt>
<wgt id='1854'> +7.4881192e+01 </wgt>
<wgt id='1855'> +7.3730864e+01 </wgt>
<wgt id='1856'> +7.4037453e+01 </wgt>
<wgt id='1857'> +7.3667071e+01 </wgt>
<wgt id='1858'> +7.3933430e+01 </wgt>
<wgt id='1859'> +7.4021669e+01 </wgt>
<wgt id='1860'> +7.3544189e+01 </wgt>
<wgt id='1861'> +7.3900445e+01 </wgt>
<wgt id='1862'> +7.4449736e+01 </wgt>
<wgt id='1863'> +7.4089324e+01 </wgt>
<wgt id='1864'> +7.3594775e+01 </wgt>
<wgt id='1865'> +7.3566273e+01 </wgt>
<wgt id='1866'> +7.4017170e+01 </wgt>
<wgt id='1867'> +7.3122683e+01 </wgt>
<wgt id='1868'> +7.3440075e+01 </wgt>
<wgt id='1869'> +7.3635560e+01 </wgt>
<wgt id='1870'> +7.4913849e+01 </wgt>
<wgt id='1871'> +7.3332530e+01 </wgt>
<wgt id='1872'> +7.3672818e+01 </wgt>
<wgt id='1873'> +7.4373585e+01 </wgt>
<wgt id='1874'> +7.2882774e+01 </wgt>
<wgt id='1875'> +7.3247544e+01 </wgt>
<wgt id='1876'> +7.3992321e+01 </wgt>
<wgt id='1877'> +7.2853470e+01 </wgt>
<wgt id='1878'> +7.3619253e+01 </wgt>
<wgt id='1879'> +7.4118899e+01 </wgt>
<wgt id='1880'> +7.3776574e+01 </wgt>
<wgt id='1881'> +7.3555276e+01 </wgt>
<wgt id='1882'> +7.3645109e+01 </wgt>
<wgt id='1883'> +7.3535013e+01 </wgt>
<wgt id='1884'> +7.3465546e+01 </wgt>
<wgt id='1885'> +7.3712974e+01 </wgt>
<wgt id='1886'> +7.2899757e+01 </wgt>
<wgt id='1887'> +7.3673304e+01 </wgt>
<wgt id='1888'> +7.2907811e+01 </wgt>
<wgt id='1889'> +7.3204796e+01 </wgt>
<wgt id='1890'> +7.4067765e+01 </wgt>
<wgt id='1891'> +7.3962099e+01 </wgt>
<wgt id='1892'> +7.3661119e+01 </wgt>
<wgt id='1893'> +7.3681617e+01 </wgt>
<wgt id='1894'> +7.4072574e+01 </wgt>
<wgt id='1895'> +7.3408331e+01 </wgt>
<wgt id='1896'> +7.3577821e+01 </wgt>
<wgt id='1897'> +7.3419817e+01 </wgt>
<wgt id='1898'> +7.3671978e+01 </wgt>
<wgt id='1899'> +7.3599858e+01 </wgt>
<wgt id='1900'> +7.3916654e+01 </wgt>
<wgt id='1901'> +7.3526767e+01 </wgt>
<wgt id='1902'> +7.3170855e+01 </wgt>
<wgt id='1903'> +7.3559859e+01 </wgt>
<wgt id='1904'> +7.3820998e+01 </wgt>
<wgt id='1905'> +7.3729144e+01 </wgt>
<wgt id='1906'> +7.3701393e+01 </wgt>
<wgt id='1907'> +7.3750500e+01 </wgt>
<wgt id='1908'> +7.3917282e+01 </wgt>
<wgt id='1909'> +7.3689696e+01 </wgt>
<wgt id='1910'> +7.3860060e+01 </wgt>
<wgt id='1911'> +7.3955087e+01 </wgt>
<wgt id='1912'> +7.3476489e+01 </wgt>
<wgt id='1913'> +7.3732097e+01 </wgt>
<wgt id='1914'> +7.3617344e+01 </wgt>
<wgt id='1915'> +7.3915709e+01 </wgt>
<wgt id='1916'> +7.3528184e+01 </wgt>
<wgt id='1917'> +7.3693451e+01 </wgt>
<wgt id='1918'> +7.3867095e+01 </wgt>
<wgt id='1919'> +7.3347072e+01 </wgt>
<wgt id='1920'> +7.4421015e+01 </wgt>
<wgt id='1921'> +7.3414654e+01 </wgt>
<wgt id='1922'> +7.3876458e+01 </wgt>
<wgt id='1923'> +7.4113316e+01 </wgt>
<wgt id='1924'> +7.3748584e+01 </wgt>
<wgt id='1925'> +7.3745307e+01 </wgt>
<wgt id='1926'> +7.3838165e+01 </wgt>
<wgt id='1927'> +7.4014464e+01 </wgt>
<wgt id='1928'> +7.3653230e+01 </wgt>
<wgt id='1929'> +7.3742682e+01 </wgt>
<wgt id='1930'> +7.3676255e+01 </wgt>
<wgt id='1931'> +7.3666578e+01 </wgt>
<wgt id='1932'> +7.3699553e+01 </wgt>
<wgt id='1933'> +7.3570264e+01 </wgt>
<wgt id='1934'> +7.3535044e+01 </wgt>
<wgt id='1935'> +7.3925621e+01 </wgt>
<wgt id='1936'> +7.3756554e+01 </wgt>
<wgt id='1937'> +7.3767245e+01 </wgt>
<wgt id='1938'> +7.3652246e+01 </wgt>
<wgt id='1939'> +7.3657179e+01 </wgt>
<wgt id='1940'> +7.3689266e+01 </wgt>
<wgt id='1941'> +7.3745102e+01 </wgt>
<wgt id='1942'> +7.3647055e+01 </wgt>
<wgt id='1943'> +7.3784750e+01 </wgt>
<wgt id='1944'> +7.3758106e+01 </wgt>
<wgt id='1945'> +7.3734095e+01 </wgt>
<wgt id='1946'> +7.3705954e+01 </wgt>
<wgt id='1947'> +7.3662353e+01 </wgt>
<wgt id='1948'> +7.3771461e+01 </wgt>
<wgt id='1949'> +7.3587457e+01 </wgt>
<wgt id='1950'> +7.3719250e+01 </wgt>
<wgt id='1951'> +7.3812007e+01 </wgt>
<wgt id='1952'> +7.3720945e+01 </wgt>
<wgt id='1953'> +7.3654512e+01 </wgt>
<wgt id='1954'> +7.3699544e+01 </wgt>
<wgt id='1955'> +7.3725733e+01 </wgt>
<wgt id='1956'> +7.3730332e+01 </wgt>
<wgt id='1957'> +7.3733715e+01 </wgt>
<wgt id='1958'> +7.3731417e+01 </wgt>
<wgt id='1959'> +7.3731509e+01 </wgt>
<wgt id='1960'> +7.3732470e+01 </wgt>
<wgt id='1961'> +7.3731094e+01 </wgt>
<wgt id='1962'> +7.3734336e+01 </wgt>
</rwgt>
</event>
<event npLO=" -1 " npNLO=" 1 ">
 8      1 -1.5146096e+02 6.73731090e+01 7.54677110e-03 1.12587620e-01
       21 -1    0    0  503  502 +0.0000000000e+00 +0.0000000000e+00 +1.1119941000e+02 1.1119941000e+02 0.0000000000e+00 0.0000e+00 9.0000e+00
       -2 -1    0    0    0  501 +0.0000000000e+00 +0.0000000000e+00 -1.6342589000e+02 1.6342589000e+02 0.0000000000e+00 0.0000e+00 9.0000e+00
       23  2    1    2    0    0 +1.0172440000e+02 -6.1307139000e+00 -2.6539254000e+01 1.4185537000e+02 9.5043014000e+01 0.0000e+00 0.0000e+00
       13  1    3    3    0    0 +8.9516675000e+01 +2.1945323000e+01 +1.1659476000e+01 9.2901968000e+01 0.0000000000e+00 0.0000e+00 9.0000e+00
      -13  1    3    3    0    0 +1.2207722000e+01 -2.8076037000e+01 -3.8198730000e+01 4.8953399000e+01 0.0000000000e+00 0.0000e+00 9.0000e+00
       22  1    1    2    0    0 -3.0731259000e+01 +2.5161405000e+01 -3.9442404000e+01 5.5975083000e+01 0.0000000000e+00 0.0000e+00 9.0000e+00
       -2  1    1    2    0  502 -5.0772239000e+01 -5.1643262000e+00 +9.2232617000e+00 5.1860959000e+01 0.0000000000e+00 0.0000e+00 9.0000e+00
       21  1    1    2  503  501 -2.0220898000e+01 -1.3866365000e+01 +4.5319130000e+00 2.4933893000e+01 0.0000000000e+00 0.0000e+00 9.0000e+00
#aMCatNLO 2  0  0  1  2 0.29738566E+02 0.00000000E+00 -9  7  0 0.00000000E+00 0.00000000E+00 0.00000000E+00 0.00000000E+00 0.00000000E+00
<rwgt>
<wgt id='1001'> -1.5146000e+02 </wgt>
<wgt id='1002'> -1.5146000e+02 </wgt>
<wgt id='1003'> -1.3653000e+02 </wgt>
<wgt id='1004'> -1.4883000e+02 </wgt>
<wgt id='1005'> -1.5344000e+02 </wgt>
<wgt id='1006'> -1.5295000e+02 </wgt>
<wgt id='1007'> -1.3639000e+02 </wgt>
<wgt id='1008'> -1.4928000e+02 </wgt>
<wgt id='1009'> -1.5638000e+02 </wgt>
<wgt id='1010'> -1.5208000e+02 </wgt>
<wgt id='1011'> -1.5267000e+02 </wgt>
<wgt id='1012'> -1.4949000e+02 </wgt>
<wgt id='1013'> -1.4341000e+02 </wgt>
<wgt id='1014'> -1.5328000e+02 </wgt>
<wgt id='1015'> -1.5697000e+02 </wgt>
<wgt id='1016'> -1.4936000e+02 </wgt>
<wgt id='1017'> -1.5067000e+02 </wgt>
<wgt id='1018'> -1.5192000e+02 </wgt>
<wgt id='1019'> -1.4992000e+02 </wgt>
<wgt id='1020'> -1.4817000e+02 </wgt>
<wgt id='1021'> -1.5146000e+02 </wgt>
<wgt id='1022'> -1.5687000e+02 </wgt>
<wgt id='1023'> -1.5339000e+02 </wgt>
<wgt id='1024'> -1.5198000e+02 </wgt>
<wgt id='1025'> -1.5898000e+02 </wgt>
<wgt id='1026'> -1.5644000e+02 </wgt>
<wgt id='1027'> -1.5338000e+02 </wgt>
<wgt id='1028'> -1.5292000e+02 </wgt>
<wgt id='1029'> -1.5063000e+02 </wgt>
<wgt id='1030'> -1.5174000e+02 </wgt>
<wgt id='1031'> -1.5121000e+02 </wgt>
<wgt id='1032'> -1.5567000e+02 </wgt>
<wgt id='1033'> -1.5506000e+02 </wgt>
<wgt id='1034'> -1.5009000e+02 </wgt>
<wgt id='1035'> -1.5463000e+02 </wgt>
<wgt id='1036'> -1.5131000e+02 </wgt>
<wgt id='1037'> -1.5813000e+02 </wgt>
<wgt id='1038'> -1.5444000e+02 </wgt>
<wgt id='1039'> -1.5407000e+02 </wgt>
<wgt id='1040'> -1.4990000e+02 </wgt>
<wgt id='1041'> -1.4517000e+02 </wgt>
<wgt id='1042'> -1.5404000e+02 </wgt>
<wgt id='1043'> -1.4771000e+02 </wgt>
<wgt id='1044'> -1.4926000e+02 </wgt>
<wgt id='1045'> -1.5401000e+02 </wgt>
<wgt id='1046'> -1.4936000e+02 </wgt>
<wgt id='1047'> -1.5263000e+02 </wgt>
<wgt id='1048'> -1.4742000e+02 </wgt>
<wgt id='1049'> -1.4649000e+02 </wgt>
<wgt id='1050'> -1.5046000e+02 </wgt>
<wgt id='1051'> -1.5551000e+02 </wgt>
<wgt id='1052'> -1.5302000e+02 </wgt>
<wgt id='1053'> -1.5335000e+02 </wgt>
<wgt id='1054'> -1.5158000e+02 </wgt>
<wgt id='1055'> -1.5384000e+02 </wgt>
<wgt id='1056'> -1.5247000e+02 </wgt>
<wgt id='1057'> -1.5303000e+02 </wgt>
<wgt id='1058'> -1.4750000e+02 </wgt>
<wgt id='1059'> -1.5555000e+02 </wgt>
<wgt id='1060'> -1.5020000e+02 </wgt>
<wgt id='1061'> -1.5240000e+02 </wgt>
<wgt id='1062'> -1.5391000e+02 </wgt>
<wgt id='1063'> -1.5201000e+02 </wgt>
<wgt id='1064'> -1.5037000e+02 </wgt>
<wgt id='1065'> -1.4945000e+02 </wgt>
<wgt id='1066'> -1.4297000e+02 </wgt>
<wgt id='1067'> -1.5318000e+02 </wgt>
<wgt id='1068'> -1.5425000e+02 </wgt>
<wgt id='1069'> -1.6028000e+02 </wgt>
<wgt id='1070'> -1.5087000e+02 </wgt>
<wgt id='1071'> -1.5213000e+02 </wgt>
<wgt id='1072'> -1.5306000e+02 </wgt>
<wgt id='1073'> -1.5324000e+02 </wgt>
<wgt id='1074'> -1.4953000e+02 </wgt>
<wgt id='1075'> -1.4045000e+02 </wgt>
<wgt id='1076'> -1.5363000e+02 </wgt>
<wgt id='1077'> -1.4786000e+02 </wgt>
<wgt id='1078'> -1.5006000e+02 </wgt>
<wgt id='1079'> -1.5250000e+02 </wgt>
<wgt id='1080'> -1.5257000e+02 </wgt>
<wgt id='1081'> -1.4998000e+02 </wgt>
<wgt id='1082'> -1.5596000e+02 </wgt>
<wgt id='1083'> -1.5198000e+02 </wgt>
<wgt id='1084'> -1.5339000e+02 </wgt>
<wgt id='1085'> -1.5061000e+02 </wgt>
<wgt id='1086'> -1.5259000e+02 </wgt>
<wgt id='1087'> -1.4931000e+02 </wgt>
<wgt id='1088'> -1.4786000e+02 </wgt>
<wgt id='1089'> -1.5010000e+02 </wgt>
<wgt id='1090'> -1.5123000e+02 </wgt>
<wgt id='1091'> -1.5224000e+02 </wgt>
<wgt id='1092'> -1.5257000e+02 </wgt>
<wgt id='1093'> -1.5180000e+02 </wgt>
<wgt id='1094'> -1.5804000e+02 </wgt>
<wgt id='1095'> -1.5111000e+02 </wgt>
<wgt id='1096'> -1.4683000e+02 </wgt>
<wgt id='1097'> -1.4437000e+02 </wgt>
<wgt id='1098'> -1.5345000e+02 </wgt>
<wgt id='1099'> -1.5341000e+02 </wgt>
<wgt id='1100'> -1.5718000e+02 </wgt>
<wgt id='1101'> -1.5447000e+02 </wgt>
<wgt id='1102'> -1.4755000e+02 </wgt>
<wgt id='1103'> -1.4943000e+02 </wgt>
<wgt id='1104'> -1.5285000e+02 </wgt>
<wgt id='1105'> -1.5146096e+02 </wgt>
<wgt id='1106'> -6.2658939e+01 </wgt>
<wgt id='1107'> -9.3443802e+01 </wgt>
<wgt id='1108'> -7.7209649e+01 </wgt>
<wgt id='1109'> -6.3882793e+01 </wgt>
<wgt id='1110'> -9.5268946e+01 </wgt>
<wgt id='1111'> -7.3252675e+01 </wgt>
<wgt id='1112'> -6.0608816e+01 </wgt>
<wgt id='1113'> -9.0386438e+01 </wgt>
<wgt id='1114'> -7.7861011e+01 </wgt>
<wgt id='1115'> -8.5926726e+01 </wgt>
<wgt id='1116'> -7.8314447e+01 </wgt>
<wgt id='1117'> -8.0384227e+01 </wgt>
<wgt id='1118'> -7.9356463e+01 </wgt>
<wgt id='1119'> -7.4993342e+01 </wgt>
<wgt id='1120'> -7.9933236e+01 </wgt>
<wgt id='1121'> -7.7061036e+01 </wgt>
<wgt id='1122'> -7.4981334e+01 </wgt>
<wgt id='1123'> -7.6293193e+01 </wgt>
<wgt id='1124'> -7.7298047e+01 </wgt>
<wgt id='1125'> -7.8204026e+01 </wgt>
<wgt id='1126'> -7.5180514e+01 </wgt>
<wgt id='1127'> -7.5801561e+01 </wgt>
<wgt id='1128'> -7.7553825e+01 </wgt>
<wgt id='1129'> -8.0176565e+01 </wgt>
<wgt id='1130'> -7.8224331e+01 </wgt>
<wgt id='1131'> -8.0531568e+01 </wgt>
<wgt id='1132'> -7.5867944e+01 </wgt>
<wgt id='1133'> -7.6995337e+01 </wgt>
<wgt id='1134'> -7.3801180e+01 </wgt>
<wgt id='1135'> -7.7679596e+01 </wgt>
<wgt id='1136'> -8.0158520e+01 </wgt>
<wgt id='1137'> -7.8364917e+01 </wgt>
<wgt id='1138'> -7.6195798e+01 </wgt>
<wgt id='1139'> -7.5942118e+01 </wgt>
<wgt id='1140'> -7.9139561e+01 </wgt>
<wgt id='1141'> -8.1637162e+01 </wgt>
<wgt id='1142'> -7.6063764e+01 </wgt>
<wgt id='1143'> -7.8680004e+01 </wgt>
<wgt id='1144'> -7.9825307e+01 </wgt>
<wgt id='1145'> -8.1163287e+01 </wgt>
<wgt id='1146'> -7.7531239e+01 </wgt>
<wgt id='1147'> -8.0041674e+01 </wgt>
<wgt id='1148'> -7.5321042e+01 </wgt>
<wgt id='1149'> -8.0433333e+01 </wgt>
<wgt id='1150'> -7.9013694e+01 </wgt>
<wgt id='1151'> -7.7361338e+01 </wgt>
<wgt id='1152'> -7.6008102e+01 </wgt>
<wgt id='1153'> -7.7954887e+01 </wgt>
<wgt id='1154'> -7.8930298e+01 </wgt>
<wgt id='1155'> -7.9052680e+01 </wgt>
<wgt id='1156'> -7.7019217e+01 </wgt>
<wgt id='1157'> -7.9637053e+01 </wgt>
<wgt id='1158'> -7.9175065e+01 </wgt>
<wgt id='1159'> -7.8268010e+01 </wgt>
<wgt id='1160'> -7.9555470e+01 </wgt>
<wgt id='1161'> -7.6788379e+01 </wgt>
<wgt id='1162'> -7.3686956e+01 </wgt>
<wgt id='1163'> -7.9079870e+01 </wgt>
<wgt id='1164'> -7.7642653e+01 </wgt>
<wgt id='1165'> -7.6360728e+01 </wgt>
<wgt id='1166'> -7.6036483e+01 </wgt>
<wgt id='1167'> -7.7047520e+01 </wgt>
<wgt id='1168'> -7.9613426e+01 </wgt>
<wgt id='1169'> -7.9185879e+01 </wgt>
<wgt id='1170'> -7.8540944e+01 </wgt>
<wgt id='1171'> -7.9535759e+01 </wgt>
<wgt id='1172'> -7.6687297e+01 </wgt>
<wgt id='1173'> -7.8782265e+01 </wgt>
<wgt id='1174'> -8.0036751e+01 </wgt>
<wgt id='1175'> -8.0068007e+01 </wgt>
<wgt id='1176'> -7.6017391e+01 </wgt>
<wgt id='1177'> -7.6428769e+01 </wgt>
<wgt id='1178'> -7.4964349e+01 </wgt>
<wgt id='1179'> -7.8084924e+01 </wgt>
<wgt id='1180'> -7.7492464e+01 </wgt>
<wgt id='1181'> -7.7947697e+01 </wgt>
<wgt id='1182'> -7.9684924e+01 </wgt>
<wgt id='1183'> -7.7648633e+01 </wgt>
<wgt id='1184'> -7.5983202e+01 </wgt>
<wgt id='1185'> -7.8036934e+01 </wgt>
<wgt id='1186'> -7.6470685e+01 </wgt>
<wgt id='1187'> -7.4036039e+01 </wgt>
<wgt id='1188'> -7.6410402e+01 </wgt>
<wgt id='1189'> -7.5058439e+01 </wgt>
<wgt id='1190'> -8.2789333e+01 </wgt>
<wgt id='1191'> -7.6837968e+01 </wgt>
<wgt id='1192'> -7.8599544e+01 </wgt>
<wgt id='1193'> -7.6766513e+01 </wgt>
<wgt id='1194'> -7.7173470e+01 </wgt>
<wgt id='1195'> -7.8022335e+01 </wgt>
<wgt id='1196'> -7.8224331e+01 </wgt>
<wgt id='1197'> -7.7210995e+01 </wgt>
<wgt id='1198'> -7.6594658e+01 </wgt>
<wgt id='1199'> -7.8826760e+01 </wgt>
<wgt id='1200'> -7.8856402e+01 </wgt>
<wgt id='1201'> -7.6729456e+01 </wgt>
<wgt id='1202'> -8.0287070e+01 </wgt>
<wgt id='1203'> -7.3912274e+01 </wgt>
<wgt id='1204'> -7.6000580e+01 </wgt>
<wgt id='1205'> -7.8007946e+01 </wgt>
<wgt id='1206'> -7.4653952e+01 </wgt>
<wgt id='1207'> -7.6671097e+01 </wgt>
<wgt id='1208'> -7.6774618e+01 </wgt>
<wgt id='1209'> -7.8207125e+01 </wgt>
<wgt id='1210'> -7.8193212e+01 </wgt>
<wgt id='1211'> -7.9244754e+01 </wgt>
<wgt id='1212'> -7.8896205e+01 </wgt>
<wgt id='1213'> -7.9304752e+01 </wgt>
<wgt id='1214'> -7.8359635e+01 </wgt>
<wgt id='1215'> -7.5099657e+01 </wgt>
<wgt id='1216'> -7.8998145e+01 </wgt>
<wgt id='1217'> -7.9092049e+01 </wgt>
<wgt id='1218'> -7.8948240e+01 </wgt>
<wgt id='1219'> -7.9045499e+01 </wgt>
<wgt id='1220'> -7.9285944e+01 </wgt>
<wgt id='1221'> -7.9190637e+01 </wgt>
<wgt id='1222'> -7.8915614e+01 </wgt>
<wgt id='1223'> -7.9196299e+01 </wgt>
<wgt id='1224'> -7.8865411e+01 </wgt>
<wgt id='1225'> -7.9208423e+01 </wgt>
<wgt id='1226'> -7.8431010e+01 </wgt>
<wgt id='1227'> -7.8979987e+01 </wgt>
<wgt id='1228'> -7.9363675e+01 </wgt>
<wgt id='1229'> -7.8914558e+01 </wgt>
<wgt id='1230'> -7.9541693e+01 </wgt>
<wgt id='1231'> -7.8651154e+01 </wgt>
<wgt id='1232'> -7.9331291e+01 </wgt>
<wgt id='1233'> -7.9020734e+01 </wgt>
<wgt id='1234'> -7.9287178e+01 </wgt>
<wgt id='1235'> -7.8673888e+01 </wgt>
<wgt id='1236'> -7.8583556e+01 </wgt>
<wgt id='1237'> -7.9181122e+01 </wgt>
<wgt id='1238'> -7.9018772e+01 </wgt>
<wgt id='1239'> -7.8904775e+01 </wgt>
<wgt id='1240'> -7.9029732e+01 </wgt>
<wgt id='1241'> -7.8697858e+01 </wgt>
<wgt id='1242'> -7.8928718e+01 </wgt>
<wgt id='1243'> -7.9237154e+01 </wgt>
<wgt id='1244'> -7.9047744e+01 </wgt>
<wgt id='1245'> -7.9046405e+01 </wgt>
<wgt id='1246'> -7.8604636e+01 </wgt>
<wgt id='1247'> -7.9478703e+01 </wgt>
<wgt id='1248'> -7.8525789e+01 </wgt>
<wgt id='1249'> -7.9414650e+01 </wgt>
<wgt id='1250'> -7.8952286e+01 </wgt>
<wgt id='1251'> -7.8837419e+01 </wgt>
<wgt id='1252'> -7.8683266e+01 </wgt>
<wgt id='1253'> -7.8672868e+01 </wgt>
<wgt id='1254'> -7.8682895e+01 </wgt>
<wgt id='1255'> -7.8968554e+01 </wgt>
<wgt id='1256'> -7.8922940e+01 </wgt>
<wgt id='1257'> -7.8658886e+01 </wgt>
<wgt id='1258'> -7.8847489e+01 </wgt>
<wgt id='1259'> -7.9037255e+01 </wgt>
<wgt id='1260'> -7.8808546e+01 </wgt>
<wgt id='1261'> -7.8930089e+01 </wgt>
<wgt id='1262'> -7.8935784e+01 </wgt>
<wgt id='1263'> -7.8973788e+01 </wgt>
<wgt id='1264'> -7.9047010e+01 </wgt>
<wgt id='1265'> -7.9068301e+01 </wgt>
<wgt id='1266'> -7.9088764e+01 </wgt>
<wgt id='1267'> -7.9208172e+01 </wgt>
<wgt id='1268'> -7.8948663e+01 </wgt>
<wgt id='1269'> -7.8957270e+01 </wgt>
<wgt id='1270'> -7.8981526e+01 </wgt>
<wgt id='1271'> -7.8954578e+01 </wgt>
<wgt id='1272'> -7.9163239e+01 </wgt>
<wgt id='1273'> -7.8880236e+01 </wgt>
<wgt id='1274'> -7.8954109e+01 </wgt>
<wgt id='1275'> -7.9123878e+01 </wgt>
<wgt id='1276'> -7.9058648e+01 </wgt>
<wgt id='1277'> -7.9007772e+01 </wgt>
<wgt id='1278'> -7.9037186e+01 </wgt>
<wgt id='1279'> -7.9105132e+01 </wgt>
<wgt id='1280'> -7.8946018e+01 </wgt>
<wgt id='1281'> -7.9000590e+01 </wgt>
<wgt id='1282'> -7.9128749e+01 </wgt>
<wgt id='1283'> -7.8879786e+01 </wgt>
<wgt id='1284'> -7.8919296e+01 </wgt>
<wgt id='1285'> -7.9033450e+01 </wgt>
<wgt id='1286'> -7.8718998e+01 </wgt>
<wgt id='1287'> -7.8971423e+01 </wgt>
<wgt id='1288'> -7.8995879e+01 </wgt>
<wgt id='1289'> -7.8887088e+01 </wgt>
<wgt id='1290'> -7.9158609e+01 </wgt>
<wgt id='1291'> -7.8878599e+01 </wgt>
<wgt id='1292'> -7.9049370e+01 </wgt>
<wgt id='1293'> -7.8978142e+01 </wgt>
<wgt id='1294'> -7.8972409e+01 </wgt>
<wgt id='1295'> -7.9004466e+01 </wgt>
<wgt id='1296'> -7.9083008e+01 </wgt>
<wgt id='1297'> -7.8968898e+01 </wgt>
<wgt id='1298'> -7.8923137e+01 </wgt>
<wgt id='1299'> -7.9048774e+01 </wgt>
<wgt id='1300'> -7.8931749e+01 </wgt>
<wgt id='1301'> -7.8987612e+01 </wgt>
<wgt id='1302'> -7.9041655e+01 </wgt>
<wgt id='1303'> -7.8949890e+01 </wgt>
<wgt id='1304'> -7.9022709e+01 </wgt>
<wgt id='1305'> -7.8849157e+01 </wgt>
<wgt id='1306'> -7.9067355e+01 </wgt>
<wgt id='1307'> -7.8960935e+01 </wgt>
<wgt id='1308'> -7.8946148e+01 </wgt>
<wgt id='1309'> -7.9081665e+01 </wgt>
<wgt id='1310'> -7.8946464e+01 </wgt>
<wgt id='1311'> -7.9022133e+01 </wgt>
<wgt id='1312'> -7.9052152e+01 </wgt>
<wgt id='1313'> -7.9027078e+01 </wgt>
<wgt id='1314'> -7.8933125e+01 </wgt>
<wgt id='1315'> -7.9018793e+01 </wgt>
<wgt id='1316'> -7.8935047e+01 </wgt>
<wgt id='1317'> -7.7359936e+01 </wgt>
<wgt id='1318'> -8.0849266e+01 </wgt>
<wgt id='1319'> -8.9676061e+01 </wgt>
<wgt id='1320'> -7.4718793e+01 </wgt>
<wgt id='1321'> -7.5134779e+01 </wgt>
<wgt id='1322'> -7.4829682e+01 </wgt>
<wgt id='1323'> -7.4777442e+01 </wgt>
<wgt id='1324'> -7.4108060e+01 </wgt>
<wgt id='1325'> -7.5005886e+01 </wgt>
<wgt id='1326'> -7.4741491e+01 </wgt>
<wgt id='1327'> -7.5819587e+01 </wgt>
<wgt id='1328'> -7.4255899e+01 </wgt>
<wgt id='1329'> -7.3478239e+01 </wgt>
<wgt id='1330'> -7.5558415e+01 </wgt>
<wgt id='1331'> -7.4409510e+01 </wgt>
<wgt id='1332'> -7.5113144e+01 </wgt>
<wgt id='1333'> -7.3186987e+01 </wgt>
<wgt id='1334'> -7.5161236e+01 </wgt>
<wgt id='1335'> -7.6856048e+01 </wgt>
<wgt id='1336'> -7.2325041e+01 </wgt>
<wgt id='1337'> -7.5924495e+01 </wgt>
<wgt id='1338'> -7.3354041e+01 </wgt>
<wgt id='1339'> -7.5297601e+01 </wgt>
<wgt id='1340'> -7.4045951e+01 </wgt>
<wgt id='1341'> -7.4830205e+01 </wgt>
<wgt id='1342'> -7.4361531e+01 </wgt>
<wgt id='1343'> -7.4623972e+01 </wgt>
<wgt id='1344'> -7.4713977e+01 </wgt>
<wgt id='1345'> -7.4119278e+01 </wgt>
<wgt id='1346'> -7.5169284e+01 </wgt>
<wgt id='1347'> -7.4786830e+01 </wgt>
<wgt id='1348'> -7.4591122e+01 </wgt>
<wgt id='1349'> -7.4105553e+01 </wgt>
<wgt id='1350'> -7.4931085e+01 </wgt>
<wgt id='1351'> -7.4123184e+01 </wgt>
<wgt id='1352'> -7.5466390e+01 </wgt>
<wgt id='1353'> -7.4575768e+01 </wgt>
<wgt id='1354'> -7.5014205e+01 </wgt>
<wgt id='1355'> -7.4412784e+01 </wgt>
<wgt id='1356'> -7.5125623e+01 </wgt>
<wgt id='1357'> -7.5063147e+01 </wgt>
<wgt id='1358'> -7.3847544e+01 </wgt>
<wgt id='1359'> -7.3708639e+01 </wgt>
<wgt id='1360'> -7.5048530e+01 </wgt>
<wgt id='1361'> -7.4640743e+01 </wgt>
<wgt id='1362'> -7.5010601e+01 </wgt>
<wgt id='1363'> -7.5308790e+01 </wgt>
<wgt id='1364'> -7.4177413e+01 </wgt>
<wgt id='1365'> -7.3767693e+01 </wgt>
<wgt id='1366'> -7.3709075e+01 </wgt>
<wgt id='1367'> -7.3194742e+01 </wgt>
<wgt id='1368'> -7.4454760e+01 </wgt>
<wgt id='1369'> -7.3434705e+01 </wgt>
<wgt id='1370'> -7.4033686e+01 </wgt>
<wgt id='1371'> -7.4151363e+01 </wgt>
<wgt id='1372'> -7.3590749e+01 </wgt>
<wgt id='1373'> -7.3753846e+01 </wgt>
<wgt id='1374'> -7.4851254e+01 </wgt>
<wgt id='1375'> -7.3789222e+01 </wgt>
<wgt id='1376'> -7.6346929e+01 </wgt>
<wgt id='1377'> -7.2788776e+01 </wgt>
<wgt id='1378'> -7.6557818e+01 </wgt>
<wgt id='1379'> -7.4768609e+01 </wgt>
<wgt id='1380'> -7.2862228e+01 </wgt>
<wgt id='1381'> -7.6633848e+01 </wgt>
<wgt id='1382'> -6.7241919e+01 </wgt>
<wgt id='1383'> -7.5220540e+01 </wgt>
<wgt id='1384'> -7.5601410e+01 </wgt>
<wgt id='1385'> -8.6946165e+01 </wgt>
<wgt id='1386'> -8.7449232e+01 </wgt>
<wgt id='1387'> -8.6383451e+01 </wgt>
<wgt id='1388'> -8.6956648e+01 </wgt>
<wgt id='1389'> -8.6912272e+01 </wgt>
<wgt id='1390'> -8.7208903e+01 </wgt>
<wgt id='1391'> -8.6630153e+01 </wgt>
<wgt id='1392'> -8.6634831e+01 </wgt>
<wgt id='1393'> -8.7160907e+01 </wgt>
<wgt id='1394'> -8.7050700e+01 </wgt>
<wgt id='1395'> -8.6813892e+01 </wgt>
<wgt id='1396'> -8.6564879e+01 </wgt>
<wgt id='1397'> -8.7138029e+01 </wgt>
<wgt id='1398'> -8.6959677e+01 </wgt>
<wgt id='1399'> -8.6929315e+01 </wgt>
<wgt id='1400'> -8.7222610e+01 </wgt>
<wgt id='1401'> -8.6729027e+01 </wgt>
<wgt id='1402'> -8.7231956e+01 </wgt>
<wgt id='1403'> -8.6814813e+01 </wgt>
<wgt id='1404'> -8.7610413e+01 </wgt>
<wgt id='1405'> -8.6624148e+01 </wgt>
<wgt id='1406'> -8.6795293e+01 </wgt>
<wgt id='1407'> -8.7207356e+01 </wgt>
<wgt id='1408'> -8.6409915e+01 </wgt>
<wgt id='1409'> -8.8024850e+01 </wgt>
<wgt id='1410'> -8.7247288e+01 </wgt>
<wgt id='1411'> -8.6141137e+01 </wgt>
<wgt id='1412'> -8.7497182e+01 </wgt>
<wgt id='1413'> -8.6315123e+01 </wgt>
<wgt id='1414'> -8.6472612e+01 </wgt>
<wgt id='1415'> -8.7311278e+01 </wgt>
<wgt id='1416'> -8.7063631e+01 </wgt>
<wgt id='1417'> -8.6987433e+01 </wgt>
<wgt id='1418'> -8.7252973e+01 </wgt>
<wgt id='1419'> -8.6316725e+01 </wgt>
<wgt id='1420'> -8.6833073e+01 </wgt>
<wgt id='1421'> -8.6690247e+01 </wgt>
<wgt id='1422'> -8.7003756e+01 </wgt>
<wgt id='1423'> -8.6934089e+01 </wgt>
<wgt id='1424'> -8.7353782e+01 </wgt>
<wgt id='1425'> -8.6172597e+01 </wgt>
<wgt id='1426'> -8.7712915e+01 </wgt>
<wgt id='1427'> -8.6911550e+01 </wgt>
<wgt id='1428'> -8.6960813e+01 </wgt>
<wgt id='1429'> -8.6244057e+01 </wgt>
<wgt id='1430'> -8.7601538e+01 </wgt>
<wgt id='1431'> -8.7203098e+01 </wgt>
<wgt id='1432'> -8.7318221e+01 </wgt>
<wgt id='1433'> -8.7617569e+01 </wgt>
<wgt id='1434'> -8.6942041e+01 </wgt>
<wgt id='1435'> -8.7281770e+01 </wgt>
<wgt id='1436'> -6.8013839e+01 </wgt>
<wgt id='1437'> -6.8070066e+01 </wgt>
<wgt id='1438'> -6.7815729e+01 </wgt>
<wgt id='1439'> -6.8014321e+01 </wgt>
<wgt id='1440'> -6.8046062e+01 </wgt>
<wgt id='1441'> -6.8255873e+01 </wgt>
<wgt id='1442'> -6.7950730e+01 </wgt>
<wgt id='1443'> -6.8161224e+01 </wgt>
<wgt id='1444'> -6.7633013e+01 </wgt>
<wgt id='1445'> -6.7613121e+01 </wgt>
<wgt id='1446'> -6.8205240e+01 </wgt>
<wgt id='1447'> -6.8056760e+01 </wgt>
<wgt id='1448'> -6.7861404e+01 </wgt>
<wgt id='1449'> -6.8118508e+01 </wgt>
<wgt id='1450'> -6.8035245e+01 </wgt>
<wgt id='1451'> -6.8037699e+01 </wgt>
<wgt id='1452'> -6.7843151e+01 </wgt>
<wgt id='1453'> -6.8021164e+01 </wgt>
<wgt id='1454'> -6.8146672e+01 </wgt>
<wgt id='1455'> -6.7936032e+01 </wgt>
<wgt id='1456'> -6.8028943e+01 </wgt>
<wgt id='1457'> -6.8181728e+01 </wgt>
<wgt id='1458'> -6.8090053e+01 </wgt>
<wgt id='1459'> -6.8363830e+01 </wgt>
<wgt id='1460'> -6.8068827e+01 </wgt>
<wgt id='1461'> -6.8041905e+01 </wgt>
<wgt id='1462'> -6.8110023e+01 </wgt>
<wgt id='1463'> -6.7590619e+01 </wgt>
<wgt id='1464'> -6.8027387e+01 </wgt>
<wgt id='1465'> -7.5313115e+01 </wgt>
<wgt id='1466'> -7.5249069e+01 </wgt>
<wgt id='1467'> -7.5111857e+01 </wgt>
<wgt id='1468'> -7.5428382e+01 </wgt>
<wgt id='1469'> -7.6044626e+01 </wgt>
<wgt id='1470'> -7.5049398e+01 </wgt>
<wgt id='1471'> -7.5141585e+01 </wgt>
<wgt id='1472'> -7.4971192e+01 </wgt>
<wgt id='1473'> -7.5339989e+01 </wgt>
<wgt id='1474'> -7.5412271e+01 </wgt>
<wgt id='1475'> -7.5226194e+01 </wgt>
<wgt id='1476'> -7.5996732e+01 </wgt>
<wgt id='1477'> -7.4746887e+01 </wgt>
<wgt id='1478'> -7.4803707e+01 </wgt>
<wgt id='1479'> -7.5331869e+01 </wgt>
<wgt id='1480'> -7.4681666e+01 </wgt>
<wgt id='1481'> -7.5322223e+01 </wgt>
<wgt id='1482'> -7.4834771e+01 </wgt>
<wgt id='1483'> -7.5463730e+01 </wgt>
<wgt id='1484'> -7.5793154e+01 </wgt>
<wgt id='1485'> -7.4799991e+01 </wgt>
<wgt id='1486'> -7.5293314e+01 </wgt>
<wgt id='1487'> -7.5097527e+01 </wgt>
<wgt id='1488'> -7.5221170e+01 </wgt>
<wgt id='1489'> -7.5634083e+01 </wgt>
<wgt id='1490'> -7.5156049e+01 </wgt>
<wgt id='1491'> -7.5024831e+01 </wgt>
<wgt id='1492'> -7.5166555e+01 </wgt>
<wgt id='1493'> -7.5520921e+01 </wgt>
<wgt id='1494'> -7.4943852e+01 </wgt>
<wgt id='1495'> -7.5293085e+01 </wgt>
<wgt id='1496'> -7.5652716e+01 </wgt>
<wgt id='1497'> -7.5167182e+01 </wgt>
<wgt id='1498'> -7.5279766e+01 </wgt>
<wgt id='1499'> -7.5475024e+01 </wgt>
<wgt id='1500'> -7.5626915e+01 </wgt>
<wgt id='1501'> -7.5550479e+01 </wgt>
<wgt id='1502'> -7.5071951e+01 </wgt>
<wgt id='1503'> -7.5317587e+01 </wgt>
<wgt id='1504'> -7.5224678e+01 </wgt>
<wgt id='1505'> -7.5460087e+01 </wgt>
<wgt id='1506'> -7.5399092e+01 </wgt>
<wgt id='1507'> -7.5415887e+01 </wgt>
<wgt id='1508'> -7.5306524e+01 </wgt>
<wgt id='1509'> -7.5102440e+01 </wgt>
<wgt id='1510'> -7.5345395e+01 </wgt>
<wgt id='1511'> -7.5451083e+01 </wgt>
<wgt id='1512'> -7.5452175e+01 </wgt>
<wgt id='1513'> -7.5072582e+01 </wgt>
<wgt id='1514'> -7.5069776e+01 </wgt>
<wgt id='1515'> -7.5273074e+01 </wgt>
<wgt id='1516'> -7.5309704e+01 </wgt>
<wgt id='1517'> -7.5120083e+01 </wgt>
<wgt id='1518'> -7.5574603e+01 </wgt>
<wgt id='1519'> -7.5127177e+01 </wgt>
<wgt id='1520'> -7.5152378e+01 </wgt>
<wgt id='1521'> -7.5439416e+01 </wgt>
<wgt id='1522'> -7.5172296e+01 </wgt>
<wgt id='1523'> -7.5076546e+01 </wgt>
<wgt id='1524'> -7.5329086e+01 </wgt>
<wgt id='1525'> -7.5203455e+01 </wgt>
<wgt id='1526'> -7.5174355e+01 </wgt>
<wgt id='1527'> -7.5432191e+01 </wgt>
<wgt id='1528'> -7.5074940e+01 </wgt>
<wgt id='1529'> -7.5122789e+01 </wgt>
<wgt id='1530'> -7.5328966e+01 </wgt>
<wgt id='1531'> -7.5213717e+01 </wgt>
<wgt id='1532'> -7.5090435e+01 </wgt>
<wgt id='1533'> -7.5272085e+01 </wgt>
<wgt id='1534'> -7.5306381e+01 </wgt>
<wgt id='1535'> -7.5309465e+01 </wgt>
<wgt id='1536'> -7.5235962e+01 </wgt>
<wgt id='1537'> -7.5209540e+01 </wgt>
<wgt id='1538'> -7.5226671e+01 </wgt>
<wgt id='1539'> -7.5228562e+01 </wgt>
<wgt id='1540'> -7.5281706e+01 </wgt>
<wgt id='1541'> -7.5170200e+01 </wgt>
<wgt id='1542'> -7.5284459e+01 </wgt>
<wgt id='1543'> -7.5146382e+01 </wgt>
<wgt id='1544'> -7.5267210e+01 </wgt>
<wgt id='1545'> -7.5278934e+01 </wgt>
<wgt id='1546'> -7.5223533e+01 </wgt>
<wgt id='1547'> -7.5180361e+01 </wgt>
<wgt id='1548'> -7.5220211e+01 </wgt>
<wgt id='1549'> -7.5245418e+01 </wgt>
<wgt id='1550'> -7.5247772e+01 </wgt>
<wgt id='1551'> -7.5314987e+01 </wgt>
<wgt id='1552'> -7.5273511e+01 </wgt>
<wgt id='1553'> -7.5233581e+01 </wgt>
<wgt id='1554'> -7.5261546e+01 </wgt>
<wgt id='1555'> -7.5278567e+01 </wgt>
<wgt id='1556'> -7.5254542e+01 </wgt>
<wgt id='1557'> -7.5259106e+01 </wgt>
<wgt id='1558'> -7.5230442e+01 </wgt>
<wgt id='1559'> -7.5225551e+01 </wgt>
<wgt id='1560'> -7.5267724e+01 </wgt>
<wgt id='1561'> -7.5255199e+01 </wgt>
<wgt id='1562'> -7.5273979e+01 </wgt>
<wgt id='1563'> -7.5253619e+01 </wgt>
<wgt id='1564'> -7.5282375e+01 </wgt>
<wgt id='1565'> -7.5257810e+01 </wgt>
<wgt id='1566'> -7.5234779e+01 </wgt>
<wgt id='1567'> -7.3742026e+01 </wgt>
<wgt id='1568'> -7.6513888e+01 </wgt>
<wgt id='1569'> -7.5228252e+01 </wgt>
<wgt id='1570'> -7.5366434e+01 </wgt>
<wgt id='1571'> -7.5305687e+01 </wgt>
<wgt id='1572'> -7.5091148e+01 </wgt>
<wgt id='1573'> -7.5523316e+01 </wgt>
<wgt id='1574'> -7.5797327e+01 </wgt>
<wgt id='1575'> -7.5215456e+01 </wgt>
<wgt id='1576'> -7.5025012e+01 </wgt>
<wgt id='1577'> -7.5197548e+01 </wgt>
<wgt id='1578'> -7.5204427e+01 </wgt>
<wgt id='1579'> -7.4926288e+01 </wgt>
<wgt id='1580'> -7.6101330e+01 </wgt>
<wgt id='1581'> -7.5083303e+01 </wgt>
<wgt id='1582'> -7.4816210e+01 </wgt>
<wgt id='1583'> -7.4800869e+01 </wgt>
<wgt id='1584'> -7.5586382e+01 </wgt>
<wgt id='1585'> -7.5406110e+01 </wgt>
<wgt id='1586'> -7.5126257e+01 </wgt>
<wgt id='1587'> -7.5716210e+01 </wgt>
<wgt id='1588'> -7.4474590e+01 </wgt>
<wgt id='1589'> -7.5288519e+01 </wgt>
<wgt id='1590'> -7.5224906e+01 </wgt>
<wgt id='1591'> -7.4671738e+01 </wgt>
<wgt id='1592'> -7.5185952e+01 </wgt>
<wgt id='1593'> -7.5486137e+01 </wgt>
<wgt id='1594'> -7.5315702e+01 </wgt>
<wgt id='1595'> -7.5069481e+01 </wgt>
<wgt id='1596'> -7.5131111e+01 </wgt>
<wgt id='1597'> -7.5196351e+01 </wgt>
<wgt id='1598'> -7.5181025e+01 </wgt>
<wgt id='1599'> -7.5105433e+01 </wgt>
<wgt id='1600'> -7.5016581e+01 </wgt>
<wgt id='1601'> -7.5163939e+01 </wgt>
<wgt id='1602'> -7.4982530e+01 </wgt>
<wgt id='1603'> -7.5046409e+01 </wgt>
<wgt id='1604'> -7.5351372e+01 </wgt>
<wgt id='1605'> -7.5617487e+01 </wgt>
<wgt id='1606'> -7.5208498e+01 </wgt>
<wgt id='1607'> -7.5155057e+01 </wgt>
<wgt id='1608'> -7.5408286e+01 </wgt>
<wgt id='1609'> -7.4909133e+01 </wgt>
<wgt id='1610'> -7.5173419e+01 </wgt>
<wgt id='1611'> -7.5210352e+01 </wgt>
<wgt id='1612'> -7.5206393e+01 </wgt>
<wgt id='1613'> -7.5146305e+01 </wgt>
<wgt id='1614'> -7.5153522e+01 </wgt>
<wgt id='1615'> -7.4808773e+01 </wgt>
<wgt id='1616'> -7.4652907e+01 </wgt>
<wgt id='1617'> -7.5088145e+01 </wgt>
<wgt id='1618'> -7.5086597e+01 </wgt>
<wgt id='1619'> -7.5142056e+01 </wgt>
<wgt id='1620'> -7.5102985e+01 </wgt>
<wgt id='1621'> -7.5269499e+01 </wgt>
<wgt id='1622'> -7.5247076e+01 </wgt>
<wgt id='1623'> -7.5027238e+01 </wgt>
<wgt id='1624'> -7.5244379e+01 </wgt>
<wgt id='1625'> -7.5561522e+01 </wgt>
<wgt id='1626'> -7.5210271e+01 </wgt>
<wgt id='1627'> -7.5120120e+01 </wgt>
<wgt id='1628'> -7.5154914e+01 </wgt>
<wgt id='1629'> -7.5261203e+01 </wgt>
<wgt id='1630'> -7.5283492e+01 </wgt>
<wgt id='1631'> -7.5231301e+01 </wgt>
<wgt id='1632'> -7.5156857e+01 </wgt>
<wgt id='1633'> -7.5147465e+01 </wgt>
<wgt id='1634'> -7.5400958e+01 </wgt>
<wgt id='1635'> -7.5173256e+01 </wgt>
<wgt id='1636'> -7.5266511e+01 </wgt>
<wgt id='1637'> -7.5240744e+01 </wgt>
<wgt id='1638'> -7.5351094e+01 </wgt>
<wgt id='1639'> -7.5243562e+01 </wgt>
<wgt id='1640'> -7.5203918e+01 </wgt>
<wgt id='1641'> -7.5300542e+01 </wgt>
<wgt id='1642'> -7.5212338e+01 </wgt>
<wgt id='1643'> -7.5257958e+01 </wgt>
<wgt id='1644'> -7.5182314e+01 </wgt>
<wgt id='1645'> -7.5175202e+01 </wgt>
<wgt id='1646'> -7.5303531e+01 </wgt>
<wgt id='1647'> -7.5217644e+01 </wgt>
<wgt id='1648'> -7.5182563e+01 </wgt>
<wgt id='1649'> -7.5233644e+01 </wgt>
<wgt id='1650'> -7.5234217e+01 </wgt>
<wgt id='1651'> -7.5214322e+01 </wgt>
<wgt id='1652'> -7.5262221e+01 </wgt>
<wgt id='1653'> -7.5234453e+01 </wgt>
<wgt id='1654'> -7.5202767e+01 </wgt>
<wgt id='1655'> -7.5234820e+01 </wgt>
<wgt id='1656'> -7.5168840e+01 </wgt>
<wgt id='1657'> -7.5236972e+01 </wgt>
<wgt id='1658'> -7.5170077e+01 </wgt>
<wgt id='1659'> -7.5264394e+01 </wgt>
<wgt id='1660'> -7.5209515e+01 </wgt>
<wgt id='1661'> -7.5246582e+01 </wgt>
<wgt id='1662'> -7.5198927e+01 </wgt>
<wgt id='1663'> -7.5245750e+01 </wgt>
<wgt id='1664'> -7.5264658e+01 </wgt>
<wgt id='1665'> -7.5195952e+01 </wgt>
<wgt id='1666'> -7.5225282e+01 </wgt>
<wgt id='1667'> -7.5217789e+01 </wgt>
<wgt id='1668'> -7.5213375e+01 </wgt>
<wgt id='1669'> -7.5233467e+01 </wgt>
<wgt id='1670'> -7.4036915e+01 </wgt>
<wgt id='1671'> -7.6424838e+01 </wgt>
<wgt id='1672'> -7.5249043e+01 </wgt>
<wgt id='1673'> -7.5974984e+01 </wgt>
<wgt id='1674'> -7.4167140e+01 </wgt>
<wgt id='1675'> -7.5172405e+01 </wgt>
<wgt id='1676'> -7.5555569e+01 </wgt>
<wgt id='1677'> -7.6186229e+01 </wgt>
<wgt id='1678'> -7.5434634e+01 </wgt>
<wgt id='1679'> -7.5274684e+01 </wgt>
<wgt id='1680'> -7.5362768e+01 </wgt>
<wgt id='1681'> -7.5308365e+01 </wgt>
<wgt id='1682'> -7.5324881e+01 </wgt>
<wgt id='1683'> -7.4911257e+01 </wgt>
<wgt id='1684'> -7.5226604e+01 </wgt>
<wgt id='1685'> -7.5199643e+01 </wgt>
<wgt id='1686'> -7.4800046e+01 </wgt>
<wgt id='1687'> -7.5282416e+01 </wgt>
<wgt id='1688'> -7.5269129e+01 </wgt>
<wgt id='1689'> -7.5140399e+01 </wgt>
<wgt id='1690'> -7.5178438e+01 </wgt>
<wgt id='1691'> -7.5206003e+01 </wgt>
<wgt id='1692'> -7.6001806e+01 </wgt>
<wgt id='1693'> -7.5135181e+01 </wgt>
<wgt id='1694'> -7.5239820e+01 </wgt>
<wgt id='1695'> -7.5311626e+01 </wgt>
<wgt id='1696'> -7.5231843e+01 </wgt>
<wgt id='1697'> -7.5153125e+01 </wgt>
<wgt id='1698'> -7.5280565e+01 </wgt>
<wgt id='1699'> -7.4688315e+01 </wgt>
<wgt id='1700'> -7.5629573e+01 </wgt>
<wgt id='1701'> -7.5248356e+01 </wgt>
<wgt id='1702'> -7.5274202e+01 </wgt>
<wgt id='1703'> -7.3742026e+01 </wgt>
<wgt id='1704'> -7.6513888e+01 </wgt>
<wgt id='1705'> -7.5227326e+01 </wgt>
<wgt id='1706'> -7.5130569e+01 </wgt>
<wgt id='1707'> -7.6069995e+01 </wgt>
<wgt id='1708'> -7.5200858e+01 </wgt>
<wgt id='1709'> -7.4846097e+01 </wgt>
<wgt id='1710'> -7.4673799e+01 </wgt>
<wgt id='1711'> -7.5271503e+01 </wgt>
<wgt id='1712'> -7.5098981e+01 </wgt>
<wgt id='1713'> -7.5277248e+01 </wgt>
<wgt id='1714'> -7.4505857e+01 </wgt>
<wgt id='1715'> -7.4988964e+01 </wgt>
<wgt id='1716'> -7.5794251e+01 </wgt>
<wgt id='1717'> -7.5346583e+01 </wgt>
<wgt id='1718'> -7.5365565e+01 </wgt>
<wgt id='1719'> -7.5011567e+01 </wgt>
<wgt id='1720'> -7.5481225e+01 </wgt>
<wgt id='1721'> -7.5229715e+01 </wgt>
<wgt id='1722'> -7.5483193e+01 </wgt>
<wgt id='1723'> -7.5230022e+01 </wgt>
<wgt id='1724'> -7.5438243e+01 </wgt>
<wgt id='1725'> -7.5073404e+01 </wgt>
<wgt id='1726'> -7.5102090e+01 </wgt>
<wgt id='1727'> -7.6106584e+01 </wgt>
<wgt id='1728'> -7.5247096e+01 </wgt>
<wgt id='1729'> -7.5077915e+01 </wgt>
<wgt id='1730'> -7.5292300e+01 </wgt>
<wgt id='1731'> -7.4401253e+01 </wgt>
<wgt id='1732'> -7.5285287e+01 </wgt>
<wgt id='1733'> -7.5380122e+01 </wgt>
<wgt id='1734'> -7.5068222e+01 </wgt>
<wgt id='1735'> -7.5794226e+01 </wgt>
<wgt id='1736'> -7.4036915e+01 </wgt>
<wgt id='1737'> -7.6424838e+01 </wgt>
<wgt id='1738'> -8.3069634e+01 </wgt>
<wgt id='1739'> -8.3165128e+01 </wgt>
<wgt id='1740'> -8.2974395e+01 </wgt>
<wgt id='1741'> -8.2967231e+01 </wgt>
<wgt id='1742'> -8.3171585e+01 </wgt>
<wgt id='1743'> -8.3257233e+01 </wgt>
<wgt id='1744'> -8.2882498e+01 </wgt>
<wgt id='1745'> -8.2962806e+01 </wgt>
<wgt id='1746'> -8.3170942e+01 </wgt>
<wgt id='1747'> -8.3378932e+01 </wgt>
<wgt id='1748'> -8.2760455e+01 </wgt>
<wgt id='1749'> -8.3134126e+01 </wgt>
<wgt id='1750'> -8.3037955e+01 </wgt>
<wgt id='1751'> -8.2967832e+01 </wgt>
<wgt id='1752'> -8.3172467e+01 </wgt>
<wgt id='1753'> -8.2911663e+01 </wgt>
<wgt id='1754'> -8.3081394e+01 </wgt>
<wgt id='1755'> -8.3245397e+01 </wgt>
<wgt id='1756'> -8.2950862e+01 </wgt>
<wgt id='1757'> -8.2726834e+01 </wgt>
<wgt id='1758'> -8.3368722e+01 </wgt>
<wgt id='1759'> -8.3679136e+01 </wgt>
<wgt id='1760'> -8.2412156e+01 </wgt>
<wgt id='1761'> -8.2491305e+01 </wgt>
<wgt id='1762'> -8.3346356e+01 </wgt>
<wgt id='1763'> -8.2898420e+01 </wgt>
<wgt id='1764'> -8.3322642e+01 </wgt>
<wgt id='1765'> -8.2348260e+01 </wgt>
<wgt id='1766'> -8.3649852e+01 </wgt>
<wgt id='1767'> -8.3069634e+01 </wgt>
<wgt id='1768'> -8.3900315e+01 </wgt>
<wgt id='1769'> -8.2047251e+01 </wgt>
<wgt id='1770'> -8.4015244e+01 </wgt>
<wgt id='1771'> -8.2367228e+01 </wgt>
<wgt id='1772'> -8.3208000e+01 </wgt>
<wgt id='1773'> -8.2497592e+01 </wgt>
<wgt id='1774'> -8.2810479e+01 </wgt>
<wgt id='1775'> -8.3332588e+01 </wgt>
<wgt id='1776'> -8.2456458e+01 </wgt>
<wgt id='1777'> -8.3693146e+01 </wgt>
<wgt id='1778'> -8.3266567e+01 </wgt>
<wgt id='1779'> -8.3504147e+01 </wgt>
<wgt id='1780'> -8.7725288e+01 </wgt>
<wgt id='1781'> -7.8874356e+01 </wgt>
<wgt id='1782'> -7.8972752e+01 </wgt>
<wgt id='1783'> -7.8801291e+01 </wgt>
<wgt id='1784'> -7.8729130e+01 </wgt>
<wgt id='1785'> -7.9044880e+01 </wgt>
<wgt id='1786'> -7.8992151e+01 </wgt>
<wgt id='1787'> -7.8781802e+01 </wgt>
<wgt id='1788'> -7.8718657e+01 </wgt>
<wgt id='1789'> -7.9048746e+01 </wgt>
<wgt id='1790'> -7.9041437e+01 </wgt>
<wgt id='1791'> -7.8735044e+01 </wgt>
<wgt id='1792'> -7.9036577e+01 </wgt>
<wgt id='1793'> -7.8738264e+01 </wgt>
<wgt id='1794'> -7.8729179e+01 </wgt>
<wgt id='1795'> -7.9039772e+01 </wgt>
<wgt id='1796'> -7.8721491e+01 </wgt>
<wgt id='1797'> -7.8899152e+01 </wgt>
<wgt id='1798'> -7.8785420e+01 </wgt>
<wgt id='1799'> -7.8981643e+01 </wgt>
<wgt id='1800'> -7.8886353e+01 </wgt>
<wgt id='1801'> -7.8890230e+01 </wgt>
<wgt id='1802'> -7.8023647e+01 </wgt>
<wgt id='1803'> -7.9692643e+01 </wgt>
<wgt id='1804'> -7.8404841e+01 </wgt>
<wgt id='1805'> -7.9378640e+01 </wgt>
<wgt id='1806'> -7.8458607e+01 </wgt>
<wgt id='1807'> -7.9138115e+01 </wgt>
<wgt id='1808'> -7.8403696e+01 </wgt>
<wgt id='1809'> -7.9259366e+01 </wgt>
<wgt id='1810'> -7.8888401e+01 </wgt>
<wgt id='1811'> -7.9804613e+01 </wgt>
<wgt id='1812'> -7.7726681e+01 </wgt>
<wgt id='1813'> -7.9990880e+01 </wgt>
<wgt id='1814'> -7.8161613e+01 </wgt>
<wgt id='1815'> -7.7937713e+01 </wgt>
<wgt id='1816'> -7.8848368e+01 </wgt>
<wgt id='1817'> -7.8692067e+01 </wgt>
<wgt id='1818'> -7.9315488e+01 </wgt>
<wgt id='1819'> -7.7861235e+01 </wgt>
<wgt id='1820'> -7.8665815e+01 </wgt>
<wgt id='1821'> -7.8163666e+01 </wgt>
<wgt id='1822'> -8.0378277e+01 </wgt>
<wgt id='1823'> -8.0059098e+01 </wgt>
<wgt id='1824'> -7.3927208e+01 </wgt>
<wgt id='1825'> -7.3899983e+01 </wgt>
<wgt id='1826'> -7.3873599e+01 </wgt>
<wgt id='1827'> -7.3846388e+01 </wgt>
<wgt id='1828'> -7.3819309e+01 </wgt>
<wgt id='1829'> -7.3792307e+01 </wgt>
<wgt id='1830'> -7.3765202e+01 </wgt>
<wgt id='1831'> -7.3738135e+01 </wgt>
<wgt id='1832'> -7.3711113e+01 </wgt>
<wgt id='1833'> -7.3684047e+01 </wgt>
<wgt id='1834'> -7.3656865e+01 </wgt>
<wgt id='1835'> -7.3630504e+01 </wgt>
<wgt id='1836'> -7.3603325e+01 </wgt>
<wgt id='1837'> -7.3576270e+01 </wgt>
<wgt id='1838'> -7.3549394e+01 </wgt>
<wgt id='1839'> -7.3522208e+01 </wgt>
<wgt id='1840'> -7.3495179e+01 </wgt>
<wgt id='1841'> -7.3468194e+01 </wgt>
<wgt id='1842'> -7.3441144e+01 </wgt>
<wgt id='1843'> -7.3413997e+01 </wgt>
<wgt id='1844'> -7.3387148e+01 </wgt>
<wgt id='1845'> -7.3360631e+01 </wgt>
<wgt id='1846'> -7.3333478e+01 </wgt>
<wgt id='1847'> -7.3306662e+01 </wgt>
<wgt id='1848'> -7.3279525e+01 </wgt>
<wgt id='1849'> -7.3252499e+01 </wgt>
<wgt id='1850'> -7.3225540e+01 </wgt>
<wgt id='1851'> -7.3198546e+01 </wgt>
<wgt id='1852'> -7.3171393e+01 </wgt>
<wgt id='1853'> -7.3144581e+01 </wgt>
<wgt id='1854'> -7.3118118e+01 </wgt>
<wgt id='1855'> -7.4499018e+01 </wgt>
<wgt id='1856'> -7.4625909e+01 </wgt>
<wgt id='1857'> -7.4572817e+01 </wgt>
<wgt id='1858'> -7.4364549e+01 </wgt>
<wgt id='1859'> -7.4789496e+01 </wgt>
<wgt id='1860'> -7.5061991e+01 </wgt>
<wgt id='1861'> -7.4494000e+01 </wgt>
<wgt id='1862'> -7.4305454e+01 </wgt>
<wgt id='1863'> -7.4469083e+01 </wgt>
<wgt id='1864'> -7.4476387e+01 </wgt>
<wgt id='1865'> -7.4197647e+01 </wgt>
<wgt id='1866'> -7.5374103e+01 </wgt>
<wgt id='1867'> -7.4360022e+01 </wgt>
<wgt id='1868'> -7.4095271e+01 </wgt>
<wgt id='1869'> -7.4074617e+01 </wgt>
<wgt id='1870'> -7.4839774e+01 </wgt>
<wgt id='1871'> -7.4684677e+01 </wgt>
<wgt id='1872'> -7.4393875e+01 </wgt>
<wgt id='1873'> -7.4981708e+01 </wgt>
<wgt id='1874'> -7.3759134e+01 </wgt>
<wgt id='1875'> -7.4565817e+01 </wgt>
<wgt id='1876'> -7.4489669e+01 </wgt>
<wgt id='1877'> -7.3945692e+01 </wgt>
<wgt id='1878'> -7.4458017e+01 </wgt>
<wgt id='1879'> -7.4748986e+01 </wgt>
<wgt id='1880'> -7.4579737e+01 </wgt>
<wgt id='1881'> -7.4334038e+01 </wgt>
<wgt id='1882'> -7.4410624e+01 </wgt>
<wgt id='1883'> -7.4470985e+01 </wgt>
<wgt id='1884'> -7.4447864e+01 </wgt>
<wgt id='1885'> -7.4373669e+01 </wgt>
<wgt id='1886'> -7.4296098e+01 </wgt>
<wgt id='1887'> -7.4431465e+01 </wgt>
<wgt id='1888'> -7.4251354e+01 </wgt>
<wgt id='1889'> -7.4317404e+01 </wgt>
<wgt id='1890'> -7.4619951e+01 </wgt>
<wgt id='1891'> -7.4885061e+01 </wgt>
<wgt id='1892'> -7.4479780e+01 </wgt>
<wgt id='1893'> -7.4425542e+01 </wgt>
<wgt id='1894'> -7.4674392e+01 </wgt>
<wgt id='1895'> -7.4182717e+01 </wgt>
<wgt id='1896'> -7.4443014e+01 </wgt>
<wgt id='1897'> -7.4479833e+01 </wgt>
<wgt id='1898'> -7.4481614e+01 </wgt>
<wgt id='1899'> -7.4416710e+01 </wgt>
<wgt id='1900'> -7.4424308e+01 </wgt>
<wgt id='1901'> -7.4085126e+01 </wgt>
<wgt id='1902'> -7.3926198e+01 </wgt>
<wgt id='1903'> -7.4361450e+01 </wgt>
<wgt id='1904'> -7.4357929e+01 </wgt>
<wgt id='1905'> -7.4414656e+01 </wgt>
<wgt id='1906'> -7.4373969e+01 </wgt>
<wgt id='1907'> -7.4539489e+01 </wgt>
<wgt id='1908'> -7.4518038e+01 </wgt>
<wgt id='1909'> -7.4300739e+01 </wgt>
<wgt id='1910'> -7.4516092e+01 </wgt>
<wgt id='1911'> -7.4827096e+01 </wgt>
<wgt id='1912'> -7.4481063e+01 </wgt>
<wgt id='1913'> -7.4394161e+01 </wgt>
<wgt id='1914'> -7.4427459e+01 </wgt>
<wgt id='1915'> -7.4532960e+01 </wgt>
<wgt id='1916'> -7.4554048e+01 </wgt>
<wgt id='1917'> -7.4501747e+01 </wgt>
<wgt id='1918'> -7.4427123e+01 </wgt>
<wgt id='1919'> -7.4419666e+01 </wgt>
<wgt id='1920'> -7.4670685e+01 </wgt>
<wgt id='1921'> -7.4443558e+01 </wgt>
<wgt id='1922'> -7.4535621e+01 </wgt>
<wgt id='1923'> -7.4511524e+01 </wgt>
<wgt id='1924'> -7.4619330e+01 </wgt>
<wgt id='1925'> -7.4513737e+01 </wgt>
<wgt id='1926'> -7.4475391e+01 </wgt>
<wgt id='1927'> -7.4570160e+01 </wgt>
<wgt id='1928'> -7.4482420e+01 </wgt>
<wgt id='1929'> -7.4528449e+01 </wgt>
<wgt id='1930'> -7.4453346e+01 </wgt>
<wgt id='1931'> -7.4448156e+01 </wgt>
<wgt id='1932'> -7.4574225e+01 </wgt>
<wgt id='1933'> -7.4489275e+01 </wgt>
<wgt id='1934'> -7.4453522e+01 </wgt>
<wgt id='1935'> -7.4503045e+01 </wgt>
<wgt id='1936'> -7.4506474e+01 </wgt>
<wgt id='1937'> -7.4485922e+01 </wgt>
<wgt id='1938'> -7.4532670e+01 </wgt>
<wgt id='1939'> -7.4504294e+01 </wgt>
<wgt id='1940'> -7.4474200e+01 </wgt>
<wgt id='1941'> -7.4507713e+01 </wgt>
<wgt id='1942'> -7.4439349e+01 </wgt>
<wgt id='1943'> -7.4506913e+01 </wgt>
<wgt id='1944'> -7.4440414e+01 </wgt>
<wgt id='1945'> -7.4534231e+01 </wgt>
<wgt id='1946'> -7.4479329e+01 </wgt>
<wgt id='1947'> -7.4516167e+01 </wgt>
<wgt id='1948'> -7.4470181e+01 </wgt>
<wgt id='1949'> -7.4514788e+01 </wgt>
<wgt id='1950'> -7.4535178e+01 </wgt>
<wgt id='1951'> -7.4467700e+01 </wgt>
<wgt id='1952'> -7.4496270e+01 </wgt>
<wgt id='1953'> -7.4488377e+01 </wgt>
<wgt id='1954'> -7.4484810e+01 </wgt>
<wgt id='1955'> -7.4504666e+01 </wgt>
<wgt id='1956'> -7.4498451e+01 </wgt>
<wgt id='1957'> -7.4502013e+01 </wgt>
<wgt id='1958'> -7.4499589e+01 </wgt>
<wgt id='1959'> -7.4499694e+01 </wgt>
<wgt id='1960'> -7.4500697e+01 </wgt>
<wgt id='1961'> -7.4499261e+01 </wgt>
<wgt id='1962'> -7.4502616e+01 </wgt>
</rwgt>
</event>
<event npLO=" -1 " npNLO=" 0 ">
 7      0 +1.5146096e+02 3.00000000e+01 7.54677110e-03 1.18481950e-01
       21 -1    0    0  502  501 +0.0000000000e+00 +0.0000000000e+00 +5.2759805000e+01 5.2759805000e+01 0.0000000000e+00 0.0000e+00 9.0000e+00
        5 -1    0    0  501    0 +0.0000000000e+00 +0.0000000000e+00 -5.3855972000e+01 5.3855972000e+01 0.0000000000e+00 0.0000e+00 9.0000e+00
       23  2    1    2    0    0 +3.1993418000e+00 +1.1771522000e+01 -1.2822170000e+01 8.9695266000e+01 8.7931952000e+01 0.0000e+00 0.0000e+00
       13  1    3    3    0    0 +7.4220998000e+00 +1.5246320000e+01 +5.8345713000e+00 1.7932653000e+01 0.0000000000e+00 0.0000e+00 9.0000e+00
      -13  1    3    3    0    0 -1.5595753000e+01 -1.5777575000e+01 -3.9328380000e+01 4.5153968000e+01 0.0000000000e+00 0.0000e+00 9.0000e+00
       22  1    3    3    0    0 +1.1372994000e+01 +1.2302778000e+01 +2.0671639000e+01 2.6608645000e+01 0.0000000000e+00 0.0000e+00 9.0000e+00
        5  1    1    2  502    0 -3.1993418000e+00 -1.1771522000e+01 +1.1726003000e+01 1.6920511000e+01 0.0000000000e+00 0.0000e+00 9.0000e+00
#aMCatNLO 2  0  0  1  2 0.29368398E+02 0.00000000E+00 -9  6  0 0.00000000E+00 0.00000000E+00 0.00000000E+00 0.00000000E+00 0.00000000E+00
<rwgt>
<wgt id='1001'> +1.5146000e+02 </wgt>
<wgt id='1002'> +1.5146000e+02 </wgt>
<wgt id='1003'> +1.3744000e+02 </wgt>
<wgt id='1004'> +1.5261000e+02 </wgt>
<wgt id='1005'> +1.5015000e+02 </wgt>
<wgt id='1006'> +1.4957000e+02 </wgt>
<wgt id='1007'> +1.3146000e+02 </wgt>
<wgt id='1008'> +1.5171000e+02 </wgt>
<wgt id='1009'> +1.5419000e+02 </wgt>
<wgt id='1010'> +1.5040000e+02 </wgt>
<wgt id='1011'> +1.5120000e+02 </wgt>
<wgt id='1012'> +1.4664000e+02 </wgt>
<wgt id='1013'> +1.4925000e+02 </wgt>
<wgt id='1014'> +1.5445000e+02 </wgt>
<wgt id='1015'> +1.5416000e+02 </wgt>
<wgt id='1016'> +1.4678000e+02 </wgt>
<wgt id='1017'> +1.5121000e+02 </wgt>
<wgt id='1018'> +1.5463000e+02 </wgt>
<wgt id='1019'> +1.4851000e+02 </wgt>
<wgt id='1020'> +1.4984000e+02 </wgt>
<wgt id='1021'> +1.5321000e+02 </wgt>
<wgt id='1022'> +1.5353000e+02 </wgt>
<wgt id='1023'> +1.5227000e+02 </wgt>
<wgt id='1024'> +1.5060000e+02 </wgt>
<wgt id='1025'> +1.6412000e+02 </wgt>
<wgt id='1026'> +1.4987000e+02 </wgt>
<wgt id='1027'> +1.5414000e+02 </wgt>
<wgt id='1028'> +1.4801000e+02 </wgt>
<wgt id='1029'> +1.5000000e+02 </wgt>
<wgt id='1030'> +1.5043000e+02 </wgt>
<wgt id='1031'> +1.4914000e+02 </wgt>
<wgt id='1032'> +1.5461000e+02 </wgt>
<wgt id='1033'> +1.5068000e+02 </wgt>
<wgt id='1034'> +1.4678000e+02 </wgt>
<wgt id='1035'> +1.5592000e+02 </wgt>
<wgt id='1036'> +1.5276000e+02 </wgt>
<wgt id='1037'> +1.5641000e+02 </wgt>
<wgt id='1038'> +1.5688000e+02 </wgt>
<wgt id='1039'> +1.5311000e+02 </wgt>
<wgt id='1040'> +1.4960000e+02 </wgt>
<wgt id='1041'> +1.4539000e+02 </wgt>
<wgt id='1042'> +1.5412000e+02 </wgt>
<wgt id='1043'> +1.5066000e+02 </wgt>
<wgt id='1044'> +1.5459000e+02 </wgt>
<wgt id='1045'> +1.5358000e+02 </wgt>
<wgt id='1046'> +1.5010000e+02 </wgt>
<wgt id='1047'> +1.5485000e+02 </wgt>
<wgt id='1048'> +1.5253000e+02 </wgt>
<wgt id='1049'> +1.4869000e+02 </wgt>
<wgt id='1050'> +1.4816000e+02 </wgt>
<wgt id='1051'> +1.5349000e+02 </wgt>
<wgt id='1052'> +1.5220000e+02 </wgt>
<wgt id='1053'> +1.5169000e+02 </wgt>
<wgt id='1054'> +1.5119000e+02 </wgt>
<wgt id='1055'> +1.5436000e+02 </wgt>
<wgt id='1056'> +1.5126000e+02 </wgt>
<wgt id='1057'> +1.5206000e+02 </wgt>
<wgt id='1058'> +1.4677000e+02 </wgt>
<wgt id='1059'> +1.5881000e+02 </wgt>
<wgt id='1060'> +1.5025000e+02 </wgt>
<wgt id='1061'> +1.5348000e+02 </wgt>
<wgt id='1062'> +1.5097000e+02 </wgt>
<wgt id='1063'> +1.5363000e+02 </wgt>
<wgt id='1064'> +1.5180000e+02 </wgt>
<wgt id='1065'> +1.5471000e+02 </wgt>
<wgt id='1066'> +1.4956000e+02 </wgt>
<wgt id='1067'> +1.5387000e+02 </wgt>
<wgt id='1068'> +1.5196000e+02 </wgt>
<wgt id='1069'> +1.5887000e+02 </wgt>
<wgt id='1070'> +1.4919000e+02 </wgt>
<wgt id='1071'> +1.4762000e+02 </wgt>
<wgt id='1072'> +1.5224000e+02 </wgt>
<wgt id='1073'> +1.5604000e+02 </wgt>
<wgt id='1074'> +1.4996000e+02 </wgt>
<wgt id='1075'> +1.3890000e+02 </wgt>
<wgt id='1076'> +1.5279000e+02 </wgt>
<wgt id='1077'> +1.4982000e+02 </wgt>
<wgt id='1078'> +1.4699000e+02 </wgt>
<wgt id='1079'> +1.5284000e+02 </wgt>
<wgt id='1080'> +1.5803000e+02 </wgt>
<wgt id='1081'> +1.5082000e+02 </wgt>
<wgt id='1082'> +1.5289000e+02 </wgt>
<wgt id='1083'> +1.5245000e+02 </wgt>
<wgt id='1084'> +1.4960000e+02 </wgt>
<wgt id='1085'> +1.5174000e+02 </wgt>
<wgt id='1086'> +1.5226000e+02 </wgt>
<wgt id='1087'> +1.4665000e+02 </wgt>
<wgt id='1088'> +1.5100000e+02 </wgt>
<wgt id='1089'> +1.5090000e+02 </wgt>
<wgt id='1090'> +1.5187000e+02 </wgt>
<wgt id='1091'> +1.5467000e+02 </wgt>
<wgt id='1092'> +1.5082000e+02 </wgt>
<wgt id='1093'> +1.4634000e+02 </wgt>
<wgt id='1094'> +1.5621000e+02 </wgt>
<wgt id='1095'> +1.5004000e+02 </wgt>
<wgt id='1096'> +1.5558000e+02 </wgt>
<wgt id='1097'> +1.4880000e+02 </wgt>
<wgt id='1098'> +1.5405000e+02 </wgt>
<wgt id='1099'> +1.5250000e+02 </wgt>
<wgt id='1100'> +1.5893000e+02 </wgt>
<wgt id='1101'> +1.5619000e+02 </wgt>
<wgt id='1102'> +1.5043000e+02 </wgt>
<wgt id='1103'> +1.4922000e+02 </wgt>
<wgt id='1104'> +1.5222000e+02 </wgt>
<wgt id='1105'> +1.5146096e+02 </wgt>
<wgt id='1106'> +6.8548581e+01 </wgt>
<wgt id='1107'> +8.4633410e+01 </wgt>
<wgt id='1108'> +8.9731808e+01 </wgt>
<wgt id='1109'> +8.1222093e+01 </wgt>
<wgt id='1110'> +1.0028074e+02 </wgt>
<wgt id='1111'> +6.0041962e+01 </wgt>
<wgt id='1112'> +5.4347883e+01 </wgt>
<wgt id='1113'> +6.7100538e+01 </wgt>
<wgt id='1114'> +7.3191213e+01 </wgt>
<wgt id='1115'> +7.0682536e+01 </wgt>
<wgt id='1116'> +7.2358546e+01 </wgt>
<wgt id='1117'> +7.2898137e+01 </wgt>
<wgt id='1118'> +7.3453214e+01 </wgt>
<wgt id='1119'> +7.4369067e+01 </wgt>
<wgt id='1120'> +7.2834649e+01 </wgt>
<wgt id='1121'> +7.2515952e+01 </wgt>
<wgt id='1122'> +7.2941310e+01 </wgt>
<wgt id='1123'> +7.4101564e+01 </wgt>
<wgt id='1124'> +7.4498180e+01 </wgt>
<wgt id='1125'> +7.4575591e+01 </wgt>
<wgt id='1126'> +7.0992443e+01 </wgt>
<wgt id='1127'> +7.3151821e+01 </wgt>
<wgt id='1128'> +7.1587597e+01 </wgt>
<wgt id='1129'> +7.5618187e+01 </wgt>
<wgt id='1130'> +7.5016513e+01 </wgt>
<wgt id='1131'> +7.4729097e+01 </wgt>
<wgt id='1132'> +7.2808287e+01 </wgt>
<wgt id='1133'> +7.3665578e+01 </wgt>
<wgt id='1134'> +7.5236879e+01 </wgt>
<wgt id='1135'> +7.1344101e+01 </wgt>
<wgt id='1136'> +7.3844197e+01 </wgt>
<wgt id='1137'> +7.2947136e+01 </wgt>
<wgt id='1138'> +7.2416305e+01 </wgt>
<wgt id='1139'> +7.2372662e+01 </wgt>
<wgt id='1140'> +7.4371142e+01 </wgt>
<wgt id='1141'> +7.3716135e+01 </wgt>
<wgt id='1142'> +7.1374587e+01 </wgt>
<wgt id='1143'> +7.4399808e+01 </wgt>
<wgt id='1144'> +7.3788183e+01 </wgt>
<wgt id='1145'> +7.2334257e+01 </wgt>
<wgt id='1146'> +7.2180149e+01 </wgt>
<wgt id='1147'> +7.2254356e+01 </wgt>
<wgt id='1148'> +7.1643402e+01 </wgt>
<wgt id='1149'> +7.5961048e+01 </wgt>
<wgt id='1150'> +7.3037168e+01 </wgt>
<wgt id='1151'> +7.5133332e+01 </wgt>
<wgt id='1152'> +7.4273545e+01 </wgt>
<wgt id='1153'> +7.1752475e+01 </wgt>
<wgt id='1154'> +7.2848623e+01 </wgt>
<wgt id='1155'> +7.4451889e+01 </wgt>
<wgt id='1156'> +7.0241368e+01 </wgt>
<wgt id='1157'> +7.2638265e+01 </wgt>
<wgt id='1158'> +7.1196944e+01 </wgt>
<wgt id='1159'> +7.3629525e+01 </wgt>
<wgt id='1160'> +7.3846579e+01 </wgt>
<wgt id='1161'> +7.0475571e+01 </wgt>
<wgt id='1162'> +7.1631437e+01 </wgt>
<wgt id='1163'> +7.3734536e+01 </wgt>
<wgt id='1164'> +7.4763843e+01 </wgt>
<wgt id='1165'> +7.1752781e+01 </wgt>
<wgt id='1166'> +7.2692391e+01 </wgt>
<wgt id='1167'> +7.3187366e+01 </wgt>
<wgt id='1168'> +7.1004480e+01 </wgt>
<wgt id='1169'> +7.2400062e+01 </wgt>
<wgt id='1170'> +7.2696799e+01 </wgt>
<wgt id='1171'> +7.2974005e+01 </wgt>
<wgt id='1172'> +7.2816949e+01 </wgt>
<wgt id='1173'> +7.6852833e+01 </wgt>
<wgt id='1174'> +7.3439623e+01 </wgt>
<wgt id='1175'> +7.2478582e+01 </wgt>
<wgt id='1176'> +7.2696900e+01 </wgt>
<wgt id='1177'> +7.4164618e+01 </wgt>
<wgt id='1178'> +7.2452835e+01 </wgt>
<wgt id='1179'> +7.3310272e+01 </wgt>
<wgt id='1180'> +7.2950770e+01 </wgt>
<wgt id='1181'> +7.0514530e+01 </wgt>
<wgt id='1182'> +7.4568361e+01 </wgt>
<wgt id='1183'> +7.2126721e+01 </wgt>
<wgt id='1184'> +7.0545686e+01 </wgt>
<wgt id='1185'> +7.5446279e+01 </wgt>
<wgt id='1186'> +7.5642955e+01 </wgt>
<wgt id='1187'> +7.4617057e+01 </wgt>
<wgt id='1188'> +7.5758529e+01 </wgt>
<wgt id='1189'> +7.4159572e+01 </wgt>
<wgt id='1190'> +7.4921602e+01 </wgt>
<wgt id='1191'> +7.2881895e+01 </wgt>
<wgt id='1192'> +7.3001961e+01 </wgt>
<wgt id='1193'> +7.4278970e+01 </wgt>
<wgt id='1194'> +7.1526005e+01 </wgt>
<wgt id='1195'> +7.1036999e+01 </wgt>
<wgt id='1196'> +7.5016513e+01 </wgt>
<wgt id='1197'> +7.2360791e+01 </wgt>
<wgt id='1198'> +7.3964799e+01 </wgt>
<wgt id='1199'> +7.3772010e+01 </wgt>
<wgt id='1200'> +6.9536075e+01 </wgt>
<wgt id='1201'> +7.4315335e+01 </wgt>
<wgt id='1202'> +7.2815720e+01 </wgt>
<wgt id='1203'> +7.6952930e+01 </wgt>
<wgt id='1204'> +7.1143233e+01 </wgt>
<wgt id='1205'> +7.2345925e+01 </wgt>
<wgt id='1206'> +7.5492267e+01 </wgt>
<wgt id='1207'> +7.5105201e+01 </wgt>
<wgt id='1208'> +7.2737386e+01 </wgt>
<wgt id='1209'> +7.1682745e+01 </wgt>
<wgt id='1210'> +7.2454251e+01 </wgt>
<wgt id='1211'> +7.1843066e+01 </wgt>
<wgt id='1212'> +7.4119710e+01 </wgt>
<wgt id='1213'> +7.3986588e+01 </wgt>
<wgt id='1214'> +7.4701837e+01 </wgt>
<wgt id='1215'> +7.6472267e+01 </wgt>
<wgt id='1216'> +7.2608321e+01 </wgt>
<wgt id='1217'> +7.2899516e+01 </wgt>
<wgt id='1218'> +7.2279791e+01 </wgt>
<wgt id='1219'> +7.2927155e+01 </wgt>
<wgt id='1220'> +7.2783343e+01 </wgt>
<wgt id='1221'> +7.3015861e+01 </wgt>
<wgt id='1222'> +7.2734368e+01 </wgt>
<wgt id='1223'> +7.2802029e+01 </wgt>
<wgt id='1224'> +7.2353867e+01 </wgt>
<wgt id='1225'> +7.2530891e+01 </wgt>
<wgt id='1226'> +7.2287269e+01 </wgt>
<wgt id='1227'> +7.2799245e+01 </wgt>
<wgt id='1228'> +7.3223532e+01 </wgt>
<wgt id='1229'> +7.1919955e+01 </wgt>
<wgt id='1230'> +7.2957059e+01 </wgt>
<wgt id='1231'> +7.2934221e+01 </wgt>
<wgt id='1232'> +7.2645265e+01 </wgt>
<wgt id='1233'> +7.2983771e+01 </wgt>
<wgt id='1234'> +7.2694212e+01 </wgt>
<wgt id='1235'> +7.2328204e+01 </wgt>
<wgt id='1236'> +7.2589115e+01 </wgt>
<wgt id='1237'> +7.2434829e+01 </wgt>
<wgt id='1238'> +7.2595402e+01 </wgt>
<wgt id='1239'> +7.2548984e+01 </wgt>
<wgt id='1240'> +7.2642632e+01 </wgt>
<wgt id='1241'> +7.2628940e+01 </wgt>
<wgt id='1242'> +7.2598875e+01 </wgt>
<wgt id='1243'> +7.2641648e+01 </wgt>
<wgt id='1244'> +7.2592571e+01 </wgt>
<wgt id='1245'> +7.2616915e+01 </wgt>
<wgt id='1246'> +7.2683065e+01 </wgt>
<wgt id='1247'> +7.2637438e+01 </wgt>
<wgt id='1248'> +7.2602000e+01 </wgt>
<wgt id='1249'> +7.2636837e+01 </wgt>
<wgt id='1250'> +7.2606477e+01 </wgt>
<wgt id='1251'> +7.2676472e+01 </wgt>
<wgt id='1252'> +7.2631671e+01 </wgt>
<wgt id='1253'> +7.2611452e+01 </wgt>
<wgt id='1254'> +7.2612538e+01 </wgt>
<wgt id='1255'> +7.2586971e+01 </wgt>
<wgt id='1256'> +7.2600181e+01 </wgt>
<wgt id='1257'> +7.2625325e+01 </wgt>
<wgt id='1258'> +7.2584278e+01 </wgt>
<wgt id='1259'> +7.2588123e+01 </wgt>
<wgt id='1260'> +7.2608739e+01 </wgt>
<wgt id='1261'> +7.2632615e+01 </wgt>
<wgt id='1262'> +7.2636158e+01 </wgt>
<wgt id='1263'> +7.2601183e+01 </wgt>
<wgt id='1264'> +7.2621108e+01 </wgt>
<wgt id='1265'> +7.2604170e+01 </wgt>
<wgt id='1266'> +7.2602325e+01 </wgt>
<wgt id='1267'> +7.2641996e+01 </wgt>
<wgt id='1268'> +7.2596279e+01 </wgt>
<wgt id='1269'> +7.2597980e+01 </wgt>
<wgt id='1270'> +7.2599657e+01 </wgt>
<wgt id='1271'> +7.2589644e+01 </wgt>
<wgt id='1272'> +7.2612365e+01 </wgt>
<wgt id='1273'> +7.2592729e+01 </wgt>
<wgt id='1274'> +7.2596908e+01 </wgt>
<wgt id='1275'> +7.2603675e+01 </wgt>
<wgt id='1276'> +7.2613044e+01 </wgt>
<wgt id='1277'> +7.2614045e+01 </wgt>
<wgt id='1278'> +7.2612398e+01 </wgt>
<wgt id='1279'> +7.2624799e+01 </wgt>
<wgt id='1280'> +7.2605029e+01 </wgt>
<wgt id='1281'> +7.2613886e+01 </wgt>
<wgt id='1282'> +7.2614230e+01 </wgt>
<wgt id='1283'> +7.2595597e+01 </wgt>
<wgt id='1284'> +7.2610371e+01 </wgt>
<wgt id='1285'> +7.2596063e+01 </wgt>
<wgt id='1286'> +7.2600019e+01 </wgt>
<wgt id='1287'> +7.2607801e+01 </wgt>
<wgt id='1288'> +7.2618100e+01 </wgt>
<wgt id='1289'> +7.2603942e+01 </wgt>
<wgt id='1290'> +7.2613261e+01 </wgt>
<wgt id='1291'> +7.2607237e+01 </wgt>
<wgt id='1292'> +7.2615901e+01 </wgt>
<wgt id='1293'> +7.2611995e+01 </wgt>
<wgt id='1294'> +7.2612046e+01 </wgt>
<wgt id='1295'> +7.2614571e+01 </wgt>
<wgt id='1296'> +7.2593215e+01 </wgt>
<wgt id='1297'> +7.2608379e+01 </wgt>
<wgt id='1298'> +7.2603382e+01 </wgt>
<wgt id='1299'> +7.2610807e+01 </wgt>
<wgt id='1300'> +7.2607001e+01 </wgt>
<wgt id='1301'> +7.2614839e+01 </wgt>
<wgt id='1302'> +7.2613116e+01 </wgt>
<wgt id='1303'> +7.2601255e+01 </wgt>
<wgt id='1304'> +7.2605545e+01 </wgt>
<wgt id='1305'> +7.2610206e+01 </wgt>
<wgt id='1306'> +7.2612716e+01 </wgt>
<wgt id='1307'> +7.2612251e+01 </wgt>
<wgt id='1308'> +7.2608908e+01 </wgt>
<wgt id='1309'> +7.2606058e+01 </wgt>
<wgt id='1310'> +7.2613806e+01 </wgt>
<wgt id='1311'> +7.2609491e+01 </wgt>
<wgt id='1312'> +7.2607821e+01 </wgt>
<wgt id='1313'> +7.2602067e+01 </wgt>
<wgt id='1314'> +7.2608921e+01 </wgt>
<wgt id='1315'> +7.2610205e+01 </wgt>
<wgt id='1316'> +7.2610042e+01 </wgt>
<wgt id='1317'> +7.1133557e+01 </wgt>
<wgt id='1318'> +7.4359609e+01 </wgt>
<wgt id='1319'> +6.9110488e+01 </wgt>
<wgt id='1320'> +7.2061915e+01 </wgt>
<wgt id='1321'> +7.2129034e+01 </wgt>
<wgt id='1322'> +7.2302914e+01 </wgt>
<wgt id='1323'> +7.4117602e+01 </wgt>
<wgt id='1324'> +7.1159394e+01 </wgt>
<wgt id='1325'> +7.2339136e+01 </wgt>
<wgt id='1326'> +7.1811106e+01 </wgt>
<wgt id='1327'> +7.3066147e+01 </wgt>
<wgt id='1328'> +7.1605269e+01 </wgt>
<wgt id='1329'> +7.0301155e+01 </wgt>
<wgt id='1330'> +7.3453788e+01 </wgt>
<wgt id='1331'> +7.3344240e+01 </wgt>
<wgt id='1332'> +7.1321013e+01 </wgt>
<wgt id='1333'> +6.8976940e+01 </wgt>
<wgt id='1334'> +7.3870273e+01 </wgt>
<wgt id='1335'> +7.2776007e+01 </wgt>
<wgt id='1336'> +7.1585149e+01 </wgt>
<wgt id='1337'> +7.1298006e+01 </wgt>
<wgt id='1338'> +7.2970696e+01 </wgt>
<wgt id='1339'> +7.3105611e+01 </wgt>
<wgt id='1340'> +7.0890029e+01 </wgt>
<wgt id='1341'> +7.2281873e+01 </wgt>
<wgt id='1342'> +7.1591210e+01 </wgt>
<wgt id='1343'> +7.1615046e+01 </wgt>
<wgt id='1344'> +7.2462102e+01 </wgt>
<wgt id='1345'> +7.0847099e+01 </wgt>
<wgt id='1346'> +7.3176336e+01 </wgt>
<wgt id='1347'> +7.1774591e+01 </wgt>
<wgt id='1348'> +7.2448098e+01 </wgt>
<wgt id='1349'> +7.1439667e+01 </wgt>
<wgt id='1350'> +7.2276085e+01 </wgt>
<wgt id='1351'> +7.2178496e+01 </wgt>
<wgt id='1352'> +7.1908848e+01 </wgt>
<wgt id='1353'> +7.2022418e+01 </wgt>
<wgt id='1354'> +7.2128803e+01 </wgt>
<wgt id='1355'> +7.3321731e+01 </wgt>
<wgt id='1356'> +7.0844610e+01 </wgt>
<wgt id='1357'> +7.2764197e+01 </wgt>
<wgt id='1358'> +7.0905672e+01 </wgt>
<wgt id='1359'> +7.2040715e+01 </wgt>
<wgt id='1360'> +7.1944253e+01 </wgt>
<wgt id='1361'> +7.2768089e+01 </wgt>
<wgt id='1362'> +7.1390127e+01 </wgt>
<wgt id='1363'> +7.2846979e+01 </wgt>
<wgt id='1364'> +7.1173730e+01 </wgt>
<wgt id='1365'> +7.1144594e+01 </wgt>
<wgt id='1366'> +7.1656265e+01 </wgt>
<wgt id='1367'> +7.0959567e+01 </wgt>
<wgt id='1368'> +7.3055279e+01 </wgt>
<wgt id='1369'> +7.2539165e+01 </wgt>
<wgt id='1370'> +7.0398999e+01 </wgt>
<wgt id='1371'> +7.1920935e+01 </wgt>
<wgt id='1372'> +7.1867455e+01 </wgt>
<wgt id='1373'> +7.0128586e+01 </wgt>
<wgt id='1374'> +7.2643657e+01 </wgt>
<wgt id='1375'> +7.1414109e+01 </wgt>
<wgt id='1376'> +7.2681412e+01 </wgt>
<wgt id='1377'> +7.0450177e+01 </wgt>
<wgt id='1378'> +7.3467852e+01 </wgt>
<wgt id='1379'> +7.1979136e+01 </wgt>
<wgt id='1380'> +7.0625848e+01 </wgt>
<wgt id='1381'> +7.3030877e+01 </wgt>
<wgt id='1382'> +5.8418617e+01 </wgt>
<wgt id='1383'> +7.3966544e+01 </wgt>
<wgt id='1384'> +7.2945198e+01 </wgt>
<wgt id='1385'> +8.2507009e+01 </wgt>
<wgt id='1386'> +8.2663414e+01 </wgt>
<wgt id='1387'> +8.2327318e+01 </wgt>
<wgt id='1388'> +8.1990381e+01 </wgt>
<wgt id='1389'> +8.3390697e+01 </wgt>
<wgt id='1390'> +8.2372066e+01 </wgt>
<wgt id='1391'> +8.2663993e+01 </wgt>
<wgt id='1392'> +8.2709676e+01 </wgt>
<wgt id='1393'> +8.2361514e+01 </wgt>
<wgt id='1394'> +8.2096050e+01 </wgt>
<wgt id='1395'> +8.3014561e+01 </wgt>
<wgt id='1396'> +8.1690391e+01 </wgt>
<wgt id='1397'> +8.2929262e+01 </wgt>
<wgt id='1398'> +8.2584299e+01 </wgt>
<wgt id='1399'> +8.2436125e+01 </wgt>
<wgt id='1400'> +8.2370379e+01 </wgt>
<wgt id='1401'> +8.2597968e+01 </wgt>
<wgt id='1402'> +8.2296666e+01 </wgt>
<wgt id='1403'> +8.2601451e+01 </wgt>
<wgt id='1404'> +8.3305420e+01 </wgt>
<wgt id='1405'> +8.2118417e+01 </wgt>
<wgt id='1406'> +8.2458639e+01 </wgt>
<wgt id='1407'> +8.2584821e+01 </wgt>
<wgt id='1408'> +8.2489296e+01 </wgt>
<wgt id='1409'> +8.2539519e+01 </wgt>
<wgt id='1410'> +8.2497510e+01 </wgt>
<wgt id='1411'> +8.2473624e+01 </wgt>
<wgt id='1412'> +8.3299065e+01 </wgt>
<wgt id='1413'> +8.1492984e+01 </wgt>
<wgt id='1414'> +8.2895150e+01 </wgt>
<wgt id='1415'> +8.2255277e+01 </wgt>
<wgt id='1416'> +8.2571236e+01 </wgt>
<wgt id='1417'> +8.2466262e+01 </wgt>
<wgt id='1418'> +8.2727094e+01 </wgt>
<wgt id='1419'> +8.2032140e+01 </wgt>
<wgt id='1420'> +8.1953780e+01 </wgt>
<wgt id='1421'> +8.2587633e+01 </wgt>
<wgt id='1422'> +8.2693009e+01 </wgt>
<wgt id='1423'> +8.2289156e+01 </wgt>
<wgt id='1424'> +8.2557429e+01 </wgt>
<wgt id='1425'> +8.2211874e+01 </wgt>
<wgt id='1426'> +8.2623217e+01 </wgt>
<wgt id='1427'> +8.2394747e+01 </wgt>
<wgt id='1428'> +8.2775695e+01 </wgt>
<wgt id='1429'> +8.2471590e+01 </wgt>
<wgt id='1430'> +8.2520272e+01 </wgt>
<wgt id='1431'> +8.2490961e+01 </wgt>
<wgt id='1432'> +8.2483789e+01 </wgt>
<wgt id='1433'> +8.2526307e+01 </wgt>
<wgt id='1434'> +8.2436955e+01 </wgt>
<wgt id='1435'> +8.2583792e+01 </wgt>
<wgt id='1436'> +0.0000000e+00 </wgt>
<wgt id='1437'> +0.0000000e+00 </wgt>
<wgt id='1438'> +0.0000000e+00 </wgt>
<wgt id='1439'> +0.0000000e+00 </wgt>
<wgt id='1440'> +0.0000000e+00 </wgt>
<wgt id='1441'> +0.0000000e+00 </wgt>
<wgt id='1442'> +0.0000000e+00 </wgt>
<wgt id='1443'> +0.0000000e+00 </wgt>
<wgt id='1444'> +0.0000000e+00 </wgt>
<wgt id='1445'> +0.0000000e+00 </wgt>
<wgt id='1446'> +0.0000000e+00 </wgt>
<wgt id='1447'> +0.0000000e+00 </wgt>
<wgt id='1448'> +0.0000000e+00 </wgt>
<wgt id='1449'> +0.0000000e+00 </wgt>
<wgt id='1450'> +0.0000000e+00 </wgt>
<wgt id='1451'> +0.0000000e+00 </wgt>
<wgt id='1452'> +0.0000000e+00 </wgt>
<wgt id='1453'> +0.0000000e+00 </wgt>
<wgt id='1454'> +0.0000000e+00 </wgt>
<wgt id='1455'> +0.0000000e+00 </wgt>
<wgt id='1456'> +0.0000000e+00 </wgt>
<wgt id='1457'> +0.0000000e+00 </wgt>
<wgt id='1458'> +0.0000000e+00 </wgt>
<wgt id='1459'> +0.0000000e+00 </wgt>
<wgt id='1460'> +0.0000000e+00 </wgt>
<wgt id='1461'> +0.0000000e+00 </wgt>
<wgt id='1462'> +0.0000000e+00 </wgt>
<wgt id='1463'> +0.0000000e+00 </wgt>
<wgt id='1464'> +0.0000000e+00 </wgt>
<wgt id='1465'> +7.7466877e+01 </wgt>
<wgt id='1466'> +7.3949278e+01 </wgt>
<wgt id='1467'> +7.3724664e+01 </wgt>
<wgt id='1468'> +7.4876304e+01 </wgt>
<wgt id='1469'> +7.4241390e+01 </wgt>
<wgt id='1470'> +7.3662018e+01 </wgt>
<wgt id='1471'> +7.3791279e+01 </wgt>
<wgt id='1472'> +7.4059638e+01 </wgt>
<wgt id='1473'> +7.4108029e+01 </wgt>
<wgt id='1474'> +7.4323918e+01 </wgt>
<wgt id='1475'> +7.3847019e+01 </wgt>
<wgt id='1476'> +7.5934738e+01 </wgt>
<wgt id='1477'> +7.4036708e+01 </wgt>
<wgt id='1478'> +7.2951358e+01 </wgt>
<wgt id='1479'> +7.4057000e+01 </wgt>
<wgt id='1480'> +7.3094459e+01 </wgt>
<wgt id='1481'> +7.4164141e+01 </wgt>
<wgt id='1482'> +7.3849948e+01 </wgt>
<wgt id='1483'> +7.3726963e+01 </wgt>
<wgt id='1484'> +7.3901658e+01 </wgt>
<wgt id='1485'> +7.3609188e+01 </wgt>
<wgt id='1486'> +7.3810777e+01 </wgt>
<wgt id='1487'> +7.4070979e+01 </wgt>
<wgt id='1488'> +7.4163703e+01 </wgt>
<wgt id='1489'> +7.3853696e+01 </wgt>
<wgt id='1490'> +7.4049579e+01 </wgt>
<wgt id='1491'> +7.4253222e+01 </wgt>
<wgt id='1492'> +7.4009785e+01 </wgt>
<wgt id='1493'> +7.3844615e+01 </wgt>
<wgt id='1494'> +7.3987032e+01 </wgt>
<wgt id='1495'> +7.3952633e+01 </wgt>
<wgt id='1496'> +7.4093773e+01 </wgt>
<wgt id='1497'> +7.3944513e+01 </wgt>
<wgt id='1498'> +7.3918107e+01 </wgt>
<wgt id='1499'> +7.3944634e+01 </wgt>
<wgt id='1500'> +7.4141475e+01 </wgt>
<wgt id='1501'> +7.3970923e+01 </wgt>
<wgt id='1502'> +7.3939074e+01 </wgt>
<wgt id='1503'> +7.3978870e+01 </wgt>
<wgt id='1504'> +7.3952281e+01 </wgt>
<wgt id='1505'> +7.4059274e+01 </wgt>
<wgt id='1506'> +7.4084129e+01 </wgt>
<wgt id='1507'> +7.4023695e+01 </wgt>
<wgt id='1508'> +7.3998819e+01 </wgt>
<wgt id='1509'> +7.3890378e+01 </wgt>
<wgt id='1510'> +7.4118870e+01 </wgt>
<wgt id='1511'> +7.3974295e+01 </wgt>
<wgt id='1512'> +7.3942843e+01 </wgt>
<wgt id='1513'> +7.3892885e+01 </wgt>
<wgt id='1514'> +7.3993059e+01 </wgt>
<wgt id='1515'> +7.3988846e+01 </wgt>
<wgt id='1516'> +7.3837875e+01 </wgt>
<wgt id='1517'> +7.3944858e+01 </wgt>
<wgt id='1518'> +7.3856954e+01 </wgt>
<wgt id='1519'> +7.3832643e+01 </wgt>
<wgt id='1520'> +7.3870029e+01 </wgt>
<wgt id='1521'> +7.3974660e+01 </wgt>
<wgt id='1522'> +7.3911830e+01 </wgt>
<wgt id='1523'> +7.4005195e+01 </wgt>
<wgt id='1524'> +7.4000147e+01 </wgt>
<wgt id='1525'> +7.3995237e+01 </wgt>
<wgt id='1526'> +7.3908917e+01 </wgt>
<wgt id='1527'> +7.4048420e+01 </wgt>
<wgt id='1528'> +7.3989151e+01 </wgt>
<wgt id='1529'> +7.3926836e+01 </wgt>
<wgt id='1530'> +7.3949261e+01 </wgt>
<wgt id='1531'> +7.3993383e+01 </wgt>
<wgt id='1532'> +7.4032049e+01 </wgt>
<wgt id='1533'> +7.3967095e+01 </wgt>
<wgt id='1534'> +7.3999563e+01 </wgt>
<wgt id='1535'> +7.3973690e+01 </wgt>
<wgt id='1536'> +7.3882019e+01 </wgt>
<wgt id='1537'> +7.3898951e+01 </wgt>
<wgt id='1538'> +7.3940842e+01 </wgt>
<wgt id='1539'> +7.3963430e+01 </wgt>
<wgt id='1540'> +7.3830708e+01 </wgt>
<wgt id='1541'> +7.3928116e+01 </wgt>
<wgt id='1542'> +7.3980103e+01 </wgt>
<wgt id='1543'> +7.3887580e+01 </wgt>
<wgt id='1544'> +7.3910627e+01 </wgt>
<wgt id='1545'> +7.3973326e+01 </wgt>
<wgt id='1546'> +7.3945984e+01 </wgt>
<wgt id='1547'> +7.3995391e+01 </wgt>
<wgt id='1548'> +7.3977328e+01 </wgt>
<wgt id='1549'> +7.3913860e+01 </wgt>
<wgt id='1550'> +7.4001622e+01 </wgt>
<wgt id='1551'> +7.3947254e+01 </wgt>
<wgt id='1552'> +7.4012472e+01 </wgt>
<wgt id='1553'> +7.3991263e+01 </wgt>
<wgt id='1554'> +7.3990984e+01 </wgt>
<wgt id='1555'> +7.3937661e+01 </wgt>
<wgt id='1556'> +7.3976810e+01 </wgt>
<wgt id='1557'> +7.3899487e+01 </wgt>
<wgt id='1558'> +7.3937252e+01 </wgt>
<wgt id='1559'> +7.3979212e+01 </wgt>
<wgt id='1560'> +7.3905929e+01 </wgt>
<wgt id='1561'> +7.3915156e+01 </wgt>
<wgt id='1562'> +7.3982857e+01 </wgt>
<wgt id='1563'> +7.3957752e+01 </wgt>
<wgt id='1564'> +7.3941834e+01 </wgt>
<wgt id='1565'> +7.3936889e+01 </wgt>
<wgt id='1566'> +7.3952314e+01 </wgt>
<wgt id='1567'> +7.2759446e+01 </wgt>
<wgt id='1568'> +7.4909454e+01 </wgt>
<wgt id='1569'> +7.3823428e+01 </wgt>
<wgt id='1570'> +7.3489123e+01 </wgt>
<wgt id='1571'> +7.4581069e+01 </wgt>
<wgt id='1572'> +7.2564307e+01 </wgt>
<wgt id='1573'> +7.3389745e+01 </wgt>
<wgt id='1574'> +7.4027762e+01 </wgt>
<wgt id='1575'> +7.3636490e+01 </wgt>
<wgt id='1576'> +7.4384071e+01 </wgt>
<wgt id='1577'> +7.4086687e+01 </wgt>
<wgt id='1578'> +7.3574787e+01 </wgt>
<wgt id='1579'> +7.3263693e+01 </wgt>
<wgt id='1580'> +7.5237294e+01 </wgt>
<wgt id='1581'> +7.2867027e+01 </wgt>
<wgt id='1582'> +7.2378310e+01 </wgt>
<wgt id='1583'> +7.3186573e+01 </wgt>
<wgt id='1584'> +7.3815421e+01 </wgt>
<wgt id='1585'> +7.4563040e+01 </wgt>
<wgt id='1586'> +7.3615490e+01 </wgt>
<wgt id='1587'> +7.3767243e+01 </wgt>
<wgt id='1588'> +7.3989886e+01 </wgt>
<wgt id='1589'> +7.4204053e+01 </wgt>
<wgt id='1590'> +7.3892696e+01 </wgt>
<wgt id='1591'> +7.3731060e+01 </wgt>
<wgt id='1592'> +7.3841345e+01 </wgt>
<wgt id='1593'> +7.3630405e+01 </wgt>
<wgt id='1594'> +7.3836801e+01 </wgt>
<wgt id='1595'> +7.3723307e+01 </wgt>
<wgt id='1596'> +7.3937964e+01 </wgt>
<wgt id='1597'> +7.3911943e+01 </wgt>
<wgt id='1598'> +7.3738289e+01 </wgt>
<wgt id='1599'> +7.3699455e+01 </wgt>
<wgt id='1600'> +7.3918105e+01 </wgt>
<wgt id='1601'> +7.3713858e+01 </wgt>
<wgt id='1602'> +7.3726799e+01 </wgt>
<wgt id='1603'> +7.3853776e+01 </wgt>
<wgt id='1604'> +7.3839847e+01 </wgt>
<wgt id='1605'> +7.3869851e+01 </wgt>
<wgt id='1606'> +7.3783186e+01 </wgt>
<wgt id='1607'> +7.3783347e+01 </wgt>
<wgt id='1608'> +7.3725929e+01 </wgt>
<wgt id='1609'> +7.3748224e+01 </wgt>
<wgt id='1610'> +7.3913170e+01 </wgt>
<wgt id='1611'> +7.3928483e+01 </wgt>
<wgt id='1612'> +7.3753064e+01 </wgt>
<wgt id='1613'> +7.3788119e+01 </wgt>
<wgt id='1614'> +7.3913768e+01 </wgt>
<wgt id='1615'> +7.3772820e+01 </wgt>
<wgt id='1616'> +7.3898109e+01 </wgt>
<wgt id='1617'> +7.3901058e+01 </wgt>
<wgt id='1618'> +7.3864737e+01 </wgt>
<wgt id='1619'> +7.3824220e+01 </wgt>
<wgt id='1620'> +7.3789455e+01 </wgt>
<wgt id='1621'> +7.3867450e+01 </wgt>
<wgt id='1622'> +7.3723579e+01 </wgt>
<wgt id='1623'> +7.3784423e+01 </wgt>
<wgt id='1624'> +7.3832675e+01 </wgt>
<wgt id='1625'> +7.3823431e+01 </wgt>
<wgt id='1626'> +7.3890259e+01 </wgt>
<wgt id='1627'> +7.3730103e+01 </wgt>
<wgt id='1628'> +7.3798232e+01 </wgt>
<wgt id='1629'> +7.3812472e+01 </wgt>
<wgt id='1630'> +7.3833611e+01 </wgt>
<wgt id='1631'> +7.3835442e+01 </wgt>
<wgt id='1632'> +7.3755700e+01 </wgt>
<wgt id='1633'> +7.3912919e+01 </wgt>
<wgt id='1634'> +7.3770055e+01 </wgt>
<wgt id='1635'> +7.3775045e+01 </wgt>
<wgt id='1636'> +7.3818057e+01 </wgt>
<wgt id='1637'> +7.3833671e+01 </wgt>
<wgt id='1638'> +7.3828524e+01 </wgt>
<wgt id='1639'> +7.3811330e+01 </wgt>
<wgt id='1640'> +7.3824884e+01 </wgt>
<wgt id='1641'> +7.3802356e+01 </wgt>
<wgt id='1642'> +7.3838395e+01 </wgt>
<wgt id='1643'> +7.3830247e+01 </wgt>
<wgt id='1644'> +7.3852719e+01 </wgt>
<wgt id='1645'> +7.3812429e+01 </wgt>
<wgt id='1646'> +7.3820524e+01 </wgt>
<wgt id='1647'> +7.3766066e+01 </wgt>
<wgt id='1648'> +7.3813747e+01 </wgt>
<wgt id='1649'> +7.3893645e+01 </wgt>
<wgt id='1650'> +7.3846639e+01 </wgt>
<wgt id='1651'> +7.3841062e+01 </wgt>
<wgt id='1652'> +7.3835879e+01 </wgt>
<wgt id='1653'> +7.3799639e+01 </wgt>
<wgt id='1654'> +7.3774129e+01 </wgt>
<wgt id='1655'> +7.3862395e+01 </wgt>
<wgt id='1656'> +7.3746339e+01 </wgt>
<wgt id='1657'> +7.3784301e+01 </wgt>
<wgt id='1658'> +7.3784804e+01 </wgt>
<wgt id='1659'> +7.3800473e+01 </wgt>
<wgt id='1660'> +7.3772759e+01 </wgt>
<wgt id='1661'> +7.3784041e+01 </wgt>
<wgt id='1662'> +7.3817658e+01 </wgt>
<wgt id='1663'> +7.3772111e+01 </wgt>
<wgt id='1664'> +7.3806333e+01 </wgt>
<wgt id='1665'> +7.3850626e+01 </wgt>
<wgt id='1666'> +7.3833194e+01 </wgt>
<wgt id='1667'> +7.3787182e+01 </wgt>
<wgt id='1668'> +7.3838141e+01 </wgt>
<wgt id='1669'> +7.3838666e+01 </wgt>
<wgt id='1670'> +7.2910219e+01 </wgt>
<wgt id='1671'> +7.4309733e+01 </wgt>
<wgt id='1672'> +7.3948709e+01 </wgt>
<wgt id='1673'> +7.4488353e+01 </wgt>
<wgt id='1674'> +7.3372549e+01 </wgt>
<wgt id='1675'> +7.3954569e+01 </wgt>
<wgt id='1676'> +7.3058776e+01 </wgt>
<wgt id='1677'> +7.6157445e+01 </wgt>
<wgt id='1678'> +7.3769670e+01 </wgt>
<wgt id='1679'> +7.3951099e+01 </wgt>
<wgt id='1680'> +7.4256952e+01 </wgt>
<wgt id='1681'> +7.3724025e+01 </wgt>
<wgt id='1682'> +7.4234716e+01 </wgt>
<wgt id='1683'> +7.3934481e+01 </wgt>
<wgt id='1684'> +7.4128456e+01 </wgt>
<wgt id='1685'> +7.4024984e+01 </wgt>
<wgt id='1686'> +7.3769423e+01 </wgt>
<wgt id='1687'> +7.3910567e+01 </wgt>
<wgt id='1688'> +7.3625231e+01 </wgt>
<wgt id='1689'> +7.3637974e+01 </wgt>
<wgt id='1690'> +7.4154437e+01 </wgt>
<wgt id='1691'> +7.4071906e+01 </wgt>
<wgt id='1692'> +7.4164710e+01 </wgt>
<wgt id='1693'> +7.3919489e+01 </wgt>
<wgt id='1694'> +7.3923430e+01 </wgt>
<wgt id='1695'> +7.3978445e+01 </wgt>
<wgt id='1696'> +7.3755845e+01 </wgt>
<wgt id='1697'> +7.4027276e+01 </wgt>
<wgt id='1698'> +7.4078592e+01 </wgt>
<wgt id='1699'> +7.4075931e+01 </wgt>
<wgt id='1700'> +7.4140188e+01 </wgt>
<wgt id='1701'> +7.4177666e+01 </wgt>
<wgt id='1702'> +7.3914539e+01 </wgt>
<wgt id='1703'> +7.2759446e+01 </wgt>
<wgt id='1704'> +7.4909454e+01 </wgt>
<wgt id='1705'> +7.3822571e+01 </wgt>
<wgt id='1706'> +7.3420844e+01 </wgt>
<wgt id='1707'> +7.4292980e+01 </wgt>
<wgt id='1708'> +7.3592596e+01 </wgt>
<wgt id='1709'> +7.4935754e+01 </wgt>
<wgt id='1710'> +7.2272069e+01 </wgt>
<wgt id='1711'> +7.3662900e+01 </wgt>
<wgt id='1712'> +7.3610276e+01 </wgt>
<wgt id='1713'> +7.3252937e+01 </wgt>
<wgt id='1714'> +7.3236955e+01 </wgt>
<wgt id='1715'> +7.4350044e+01 </wgt>
<wgt id='1716'> +7.3833366e+01 </wgt>
<wgt id='1717'> +7.4049367e+01 </wgt>
<wgt id='1718'> +7.4149626e+01 </wgt>
<wgt id='1719'> +7.3646014e+01 </wgt>
<wgt id='1720'> +7.3627854e+01 </wgt>
<wgt id='1721'> +7.3575099e+01 </wgt>
<wgt id='1722'> +7.4477962e+01 </wgt>
<wgt id='1723'> +7.3654529e+01 </wgt>
<wgt id='1724'> +7.3494154e+01 </wgt>
<wgt id='1725'> +7.4289860e+01 </wgt>
<wgt id='1726'> +7.4195191e+01 </wgt>
<wgt id='1727'> +7.5535475e+01 </wgt>
<wgt id='1728'> +7.3757900e+01 </wgt>
<wgt id='1729'> +7.4258124e+01 </wgt>
<wgt id='1730'> +7.3568670e+01 </wgt>
<wgt id='1731'> +7.3992955e+01 </wgt>
<wgt id='1732'> +7.3921948e+01 </wgt>
<wgt id='1733'> +7.4200810e+01 </wgt>
<wgt id='1734'> +7.3817508e+01 </wgt>
<wgt id='1735'> +7.3830618e+01 </wgt>
<wgt id='1736'> +7.2910219e+01 </wgt>
<wgt id='1737'> +7.4309733e+01 </wgt>
<wgt id='1738'> +7.9260684e+01 </wgt>
<wgt id='1739'> +7.9139602e+01 </wgt>
<wgt id='1740'> +7.9381333e+01 </wgt>
<wgt id='1741'> +7.9480607e+01 </wgt>
<wgt id='1742'> +7.9041224e+01 </wgt>
<wgt id='1743'> +7.9401687e+01 </wgt>
<wgt id='1744'> +7.9119930e+01 </wgt>
<wgt id='1745'> +7.9504175e+01 </wgt>
<wgt id='1746'> +7.9024336e+01 </wgt>
<wgt id='1747'> +7.9395573e+01 </wgt>
<wgt id='1748'> +7.9128606e+01 </wgt>
<wgt id='1749'> +7.9129817e+01 </wgt>
<wgt id='1750'> +7.9404703e+01 </wgt>
<wgt id='1751'> +7.8917448e+01 </wgt>
<wgt id='1752'> +7.9608020e+01 </wgt>
<wgt id='1753'> +7.9268324e+01 </wgt>
<wgt id='1754'> +7.9135469e+01 </wgt>
<wgt id='1755'> +7.9508681e+01 </wgt>
<wgt id='1756'> +7.8976270e+01 </wgt>
<wgt id='1757'> +7.8946451e+01 </wgt>
<wgt id='1758'> +7.9566058e+01 </wgt>
<wgt id='1759'> +7.9624335e+01 </wgt>
<wgt id='1760'> +7.8797402e+01 </wgt>
<wgt id='1761'> +7.8950804e+01 </wgt>
<wgt id='1762'> +7.9139231e+01 </wgt>
<wgt id='1763'> +7.9537177e+01 </wgt>
<wgt id='1764'> +7.9105952e+01 </wgt>
<wgt id='1765'> +7.9101652e+01 </wgt>
<wgt id='1766'> +7.9497063e+01 </wgt>
<wgt id='1767'> +7.9260684e+01 </wgt>
<wgt id='1768'> +7.9201175e+01 </wgt>
<wgt id='1769'> +7.9292061e+01 </wgt>
<wgt id='1770'> +7.9184613e+01 </wgt>
<wgt id='1771'> +7.9282349e+01 </wgt>
<wgt id='1772'> +7.9510004e+01 </wgt>
<wgt id='1773'> +7.8518287e+01 </wgt>
<wgt id='1774'> +8.0713923e+01 </wgt>
<wgt id='1775'> +7.7870347e+01 </wgt>
<wgt id='1776'> +7.9037112e+01 </wgt>
<wgt id='1777'> +7.9501820e+01 </wgt>
<wgt id='1778'> +7.9291870e+01 </wgt>
<wgt id='1779'> +7.9409993e+01 </wgt>
<wgt id='1780'> +7.8439121e+01 </wgt>
<wgt id='1781'> +7.4815038e+01 </wgt>
<wgt id='1782'> +7.4749074e+01 </wgt>
<wgt id='1783'> +7.4869545e+01 </wgt>
<wgt id='1784'> +7.4928347e+01 </wgt>
<wgt id='1785'> +7.4690708e+01 </wgt>
<wgt id='1786'> +7.5009110e+01 </wgt>
<wgt id='1787'> +7.4610200e+01 </wgt>
<wgt id='1788'> +7.5168444e+01 </wgt>
<wgt id='1789'> +7.4459473e+01 </wgt>
<wgt id='1790'> +7.4837604e+01 </wgt>
<wgt id='1791'> +7.4785726e+01 </wgt>
<wgt id='1792'> +7.5001750e+01 </wgt>
<wgt id='1793'> +7.4617676e+01 </wgt>
<wgt id='1794'> +7.4567033e+01 </wgt>
<wgt id='1795'> +7.5051430e+01 </wgt>
<wgt id='1796'> +7.4677729e+01 </wgt>
<wgt id='1797'> +7.4880608e+01 </wgt>
<wgt id='1798'> +7.4761687e+01 </wgt>
<wgt id='1799'> +7.4839197e+01 </wgt>
<wgt id='1800'> +7.4672893e+01 </wgt>
<wgt id='1801'> +7.4939070e+01 </wgt>
<wgt id='1802'> +7.4087376e+01 </wgt>
<wgt id='1803'> +7.5415936e+01 </wgt>
<wgt id='1804'> +7.4862046e+01 </wgt>
<wgt id='1805'> +7.4742770e+01 </wgt>
<wgt id='1806'> +7.4637794e+01 </wgt>
<wgt id='1807'> +7.4775211e+01 </wgt>
<wgt id='1808'> +7.4850226e+01 </wgt>
<wgt id='1809'> +7.4860136e+01 </wgt>
<wgt id='1810'> +7.4814470e+01 </wgt>
<wgt id='1811'> +7.4845874e+01 </wgt>
<wgt id='1812'> +7.4624988e+01 </wgt>
<wgt id='1813'> +7.4818401e+01 </wgt>
<wgt id='1814'> +7.4764205e+01 </wgt>
<wgt id='1815'> +7.4719262e+01 </wgt>
<wgt id='1816'> +7.4835483e+01 </wgt>
<wgt id='1817'> +7.6172997e+01 </wgt>
<wgt id='1818'> +7.3675368e+01 </wgt>
<wgt id='1819'> +7.4569625e+01 </wgt>
<wgt id='1820'> +7.5093189e+01 </wgt>
<wgt id='1821'> +7.4596776e+01 </wgt>
<wgt id='1822'> +7.5448358e+01 </wgt>
<wgt id='1823'> +7.4256190e+01 </wgt>
<wgt id='1824'> +7.1654785e+01 </wgt>
<wgt id='1825'> +7.1644155e+01 </wgt>
<wgt id='1826'> +7.1633462e+01 </wgt>
<wgt id='1827'> +7.1623098e+01 </wgt>
<wgt id='1828'> +7.1612291e+01 </wgt>
<wgt id='1829'> +7.1601741e+01 </wgt>
<wgt id='1830'> +7.1590885e+01 </wgt>
<wgt id='1831'> +7.1580410e+01 </wgt>
<wgt id='1832'> +7.1569602e+01 </wgt>
<wgt id='1833'> +7.1559247e+01 </wgt>
<wgt id='1834'> +7.1548763e+01 </wgt>
<wgt id='1835'> +7.1537902e+01 </wgt>
<wgt id='1836'> +7.1527377e+01 </wgt>
<wgt id='1837'> +7.1516566e+01 </wgt>
<wgt id='1838'> +7.1506050e+01 </wgt>
<wgt id='1839'> +7.1495199e+01 </wgt>
<wgt id='1840'> +7.1484835e+01 </wgt>
<wgt id='1841'> +7.1474029e+01 </wgt>
<wgt id='1842'> +7.1463540e+01 </wgt>
<wgt id='1843'> +7.1452726e+01 </wgt>
<wgt id='1844'> +7.1442309e+01 </wgt>
<wgt id='1845'> +7.1431366e+01 </wgt>
<wgt id='1846'> +7.1420902e+01 </wgt>
<wgt id='1847'> +7.1410635e+01 </wgt>
<wgt id='1848'> +7.1399709e+01 </wgt>
<wgt id='1849'> +7.1389299e+01 </wgt>
<wgt id='1850'> +7.1378387e+01 </wgt>
<wgt id='1851'> +7.1367875e+01 </wgt>
<wgt id='1852'> +7.1357169e+01 </wgt>
<wgt id='1853'> +7.1346758e+01 </wgt>
<wgt id='1854'> +7.1335909e+01 </wgt>
<wgt id='1855'> +7.2984819e+01 </wgt>
<wgt id='1856'> +7.2628187e+01 </wgt>
<wgt id='1857'> +7.3737366e+01 </wgt>
<wgt id='1858'> +7.1729177e+01 </wgt>
<wgt id='1859'> +7.2546692e+01 </wgt>
<wgt id='1860'> +7.3182373e+01 </wgt>
<wgt id='1861'> +7.2813336e+01 </wgt>
<wgt id='1862'> +7.3562356e+01 </wgt>
<wgt id='1863'> +7.3247504e+01 </wgt>
<wgt id='1864'> +7.2736283e+01 </wgt>
<wgt id='1865'> +7.2418183e+01 </wgt>
<wgt id='1866'> +7.4411772e+01 </wgt>
<wgt id='1867'> +7.2049241e+01 </wgt>
<wgt id='1868'> +7.1554100e+01 </wgt>
<wgt id='1869'> +7.2360155e+01 </wgt>
<wgt id='1870'> +7.2955767e+01 </wgt>
<wgt id='1871'> +7.3742984e+01 </wgt>
<wgt id='1872'> +7.2765882e+01 </wgt>
<wgt id='1873'> +7.2924819e+01 </wgt>
<wgt id='1874'> +7.3166480e+01 </wgt>
<wgt id='1875'> +7.3375168e+01 </wgt>
<wgt id='1876'> +7.3046676e+01 </wgt>
<wgt id='1877'> +7.2888069e+01 </wgt>
<wgt id='1878'> +7.3006407e+01 </wgt>
<wgt id='1879'> +7.2783674e+01 </wgt>
<wgt id='1880'> +7.2985079e+01 </wgt>
<wgt id='1881'> +7.2870599e+01 </wgt>
<wgt id='1882'> +7.3114548e+01 </wgt>
<wgt id='1883'> +7.3078589e+01 </wgt>
<wgt id='1884'> +7.2892457e+01 </wgt>
<wgt id='1885'> +7.2851081e+01 </wgt>
<wgt id='1886'> +7.3093483e+01 </wgt>
<wgt id='1887'> +7.2868826e+01 </wgt>
<wgt id='1888'> +7.2880923e+01 </wgt>
<wgt id='1889'> +7.3016235e+01 </wgt>
<wgt id='1890'> +7.2996159e+01 </wgt>
<wgt id='1891'> +7.3032534e+01 </wgt>
<wgt id='1892'> +7.2943013e+01 </wgt>
<wgt id='1893'> +7.2942835e+01 </wgt>
<wgt id='1894'> +7.2880861e+01 </wgt>
<wgt id='1895'> +7.2910430e+01 </wgt>
<wgt id='1896'> +7.3073901e+01 </wgt>
<wgt id='1897'> +7.3090282e+01 </wgt>
<wgt id='1898'> +7.2921357e+01 </wgt>
<wgt id='1899'> +7.2947601e+01 </wgt>
<wgt id='1900'> +7.3075546e+01 </wgt>
<wgt id='1901'> +7.2939082e+01 </wgt>
<wgt id='1902'> +7.3059159e+01 </wgt>
<wgt id='1903'> +7.3065212e+01 </wgt>
<wgt id='1904'> +7.3026386e+01 </wgt>
<wgt id='1905'> +7.2986287e+01 </wgt>
<wgt id='1906'> +7.2948701e+01 </wgt>
<wgt id='1907'> +7.3028418e+01 </wgt>
<wgt id='1908'> +7.2883705e+01 </wgt>
<wgt id='1909'> +7.2947664e+01 </wgt>
<wgt id='1910'> +7.2996010e+01 </wgt>
<wgt id='1911'> +7.2979121e+01 </wgt>
<wgt id='1912'> +7.3052963e+01 </wgt>
<wgt id='1913'> +7.2895218e+01 </wgt>
<wgt id='1914'> +7.2961811e+01 </wgt>
<wgt id='1915'> +7.2976532e+01 </wgt>
<wgt id='1916'> +7.2995550e+01 </wgt>
<wgt id='1917'> +7.2995775e+01 </wgt>
<wgt id='1918'> +7.2913569e+01 </wgt>
<wgt id='1919'> +7.3077578e+01 </wgt>
<wgt id='1920'> +7.2929848e+01 </wgt>
<wgt id='1921'> +7.2934847e+01 </wgt>
<wgt id='1922'> +7.2976909e+01 </wgt>
<wgt id='1923'> +7.2995114e+01 </wgt>
<wgt id='1924'> +7.2987063e+01 </wgt>
<wgt id='1925'> +7.2971992e+01 </wgt>
<wgt id='1926'> +7.2986852e+01 </wgt>
<wgt id='1927'> +7.2961286e+01 </wgt>
<wgt id='1928'> +7.2999135e+01 </wgt>
<wgt id='1929'> +7.2991625e+01 </wgt>
<wgt id='1930'> +7.3015028e+01 </wgt>
<wgt id='1931'> +7.2976668e+01 </wgt>
<wgt id='1932'> +7.2981873e+01 </wgt>
<wgt id='1933'> +7.2928426e+01 </wgt>
<wgt id='1934'> +7.2975241e+01 </wgt>
<wgt id='1935'> +7.3052622e+01 </wgt>
<wgt id='1936'> +7.3010976e+01 </wgt>
<wgt id='1937'> +7.3003198e+01 </wgt>
<wgt id='1938'> +7.2997872e+01 </wgt>
<wgt id='1939'> +7.2960182e+01 </wgt>
<wgt id='1940'> +7.2935756e+01 </wgt>
<wgt id='1941'> +7.3026863e+01 </wgt>
<wgt id='1942'> +7.2906549e+01 </wgt>
<wgt id='1943'> +7.2944154e+01 </wgt>
<wgt id='1944'> +7.2944720e+01 </wgt>
<wgt id='1945'> +7.2960605e+01 </wgt>
<wgt id='1946'> +7.2931893e+01 </wgt>
<wgt id='1947'> +7.2943445e+01 </wgt>
<wgt id='1948'> +7.2979606e+01 </wgt>
<wgt id='1949'> +7.2930742e+01 </wgt>
<wgt id='1950'> +7.2967507e+01 </wgt>
<wgt id='1951'> +7.3013335e+01 </wgt>
<wgt id='1952'> +7.2994995e+01 </wgt>
<wgt id='1953'> +7.2947609e+01 </wgt>
<wgt id='1954'> +7.3000949e+01 </wgt>
<wgt id='1955'> +7.3000762e+01 </wgt>
<wgt id='1956'> +7.2984051e+01 </wgt>
<wgt id='1957'> +7.2988984e+01 </wgt>
<wgt id='1958'> +7.2985616e+01 </wgt>
<wgt id='1959'> +7.2985755e+01 </wgt>
<wgt id='1960'> +7.2987160e+01 </wgt>
<wgt id='1961'> +7.2985158e+01 </wgt>
<wgt id='1962'> +7.2989840e+01 </wgt>
</rwgt>
</event>
<event npLO=" -1 " npNLO=" 0 ">
 7      0 +1.5146096e+02 4.06263310e+01 7.54677110e-03 1.19796750e-01
       21 -1    0    0  502  501 +0.0000000000e+00 +0.0000000000e+00 +8.6535081000e+00 8.6535081000e+00 0.0000000000e+00 0.0000e+00 9.0000e+00
        1 -1    0    0  501    0 +0.0000000000e+00 +0.0000000000e+00 -3.8013821000e+02 3.8013821000e+02 0.0000000000e+00 0.0000e+00 9.0000e+00
       23  2    1    2    0    0 +7.2186955000e+00 -9.6762256000e+00 -3.6657525000e+02 3.7575939000e+02 8.1682102000e+01 0.0000e+00 0.0000e+00
       13  1    3    3    0    0 -2.8388737000e+01 -2.9860127000e+01 -1.6661563000e+02 1.7163425000e+02 0.0000000000e+00 0.0000e+00 9.0000e+00
      -13  1    3    3    0    0 +1.6730653000e+01 +8.8748681000e+00 -9.8998720000e+01 1.0079397000e+02 0.0000000000e+00 0.0000e+00 9.0000e+00
       22  1    3    3    0    0 +1.8876780000e+01 +1.1309033000e+01 -1.0096090000e+02 1.0333117000e+02 0.0000000000e+00 0.0000e+00 9.0000e+00
        1  1    1    2  502    0 -7.2186955000e+00 +9.6762256000e+00 -4.9094538000e+00 1.3032331000e+01 0.0000000000e+00 0.0000e+00 9.0000e+00
#aMCatNLO 2  0  0  1  2 0.12372019E+02 0.00000000E+00 -9  6  0 0.00000000E+00 0.00000000E+00 0.00000000E+00 0.00000000E+00 0.00000000E+00
<rwgt>
<wgt id='1001'> +1.5146000e+02 </wgt>
<wgt id='1002'> +1.5146000e+02 </wgt>
<wgt id='1003'> +1.4696000e+02 </wgt>
<wgt id='1004'> +1.4847000e+02 </wgt>
<wgt id='1005'> +1.5071000e+02 </wgt>
<wgt id='1006'> +1.5576000e+02 </wgt>
<wgt id='1007'> +1.4359000e+02 </wgt>
<wgt id='1008'> +1.5380000e+02 </wgt>
<wgt id='1009'> +1.5210000e+02 </wgt>
<wgt id='1010'> +1.5169000e+02 </wgt>
<wgt id='1011'> +1.5136000e+02 </wgt>
<wgt id='1012'> +1.5404000e+02 </wgt>
<wgt id='1013'> +1.5897000e+02 </wgt>
<wgt id='1014'> +1.4761000e+02 </wgt>
<wgt id='1015'> +1.5296000e+02 </wgt>
<wgt id='1016'> +1.5176000e+02 </wgt>
<wgt id='1017'> +1.5128000e+02 </wgt>
<wgt id='1018'> +1.4724000e+02 </wgt>
<wgt id='1019'> +1.4629000e+02 </wgt>
<wgt id='1020'> +1.3960000e+02 </wgt>
<wgt id='1021'> +1.5171000e+02 </wgt>
<wgt id='1022'> +1.5387000e+02 </wgt>
<wgt id='1023'> +1.5821000e+02 </wgt>
<wgt id='1024'> +1.5720000e+02 </wgt>
<wgt id='1025'> +1.5477000e+02 </wgt>
<wgt id='1026'> +1.5201000e+02 </wgt>
<wgt id='1027'> +1.4838000e+02 </wgt>
<wgt id='1028'> +1.5111000e+02 </wgt>
<wgt id='1029'> +1.4315000e+02 </wgt>
<wgt id='1030'> +1.5044000e+02 </wgt>
<wgt id='1031'> +1.5111000e+02 </wgt>
<wgt id='1032'> +1.5012000e+02 </wgt>
<wgt id='1033'> +1.5219000e+02 </wgt>
<wgt id='1034'> +1.5977000e+02 </wgt>
<wgt id='1035'> +1.5508000e+02 </wgt>
<wgt id='1036'> +1.5257000e+02 </wgt>
<wgt id='1037'> +1.5297000e+02 </wgt>
<wgt id='1038'> +1.4632000e+02 </wgt>
<wgt id='1039'> +1.4615000e+02 </wgt>
<wgt id='1040'> +1.5198000e+02 </wgt>
<wgt id='1041'> +1.4970000e+02 </wgt>
<wgt id='1042'> +1.5297000e+02 </wgt>
<wgt id='1043'> +1.5600000e+02 </wgt>
<wgt id='1044'> +1.5178000e+02 </wgt>
<wgt id='1045'> +1.5432000e+02 </wgt>
<wgt id='1046'> +1.5344000e+02 </wgt>
<wgt id='1047'> +1.5679000e+02 </wgt>
<wgt id='1048'> +1.5070000e+02 </wgt>
<wgt id='1049'> +1.5110000e+02 </wgt>
<wgt id='1050'> +1.5033000e+02 </wgt>
<wgt id='1051'> +1.4699000e+02 </wgt>
<wgt id='1052'> +1.5274000e+02 </wgt>
<wgt id='1053'> +1.5474000e+02 </wgt>
<wgt id='1054'> +1.5361000e+02 </wgt>
<wgt id='1055'> +1.4818000e+02 </wgt>
<wgt id='1056'> +1.5468000e+02 </wgt>
<wgt id='1057'> +1.5436000e+02 </wgt>
<wgt id='1058'> +1.4597000e+02 </wgt>
<wgt id='1059'> +1.4671000e+02 </wgt>
<wgt id='1060'> +1.5498000e+02 </wgt>
<wgt id='1061'> +1.4715000e+02 </wgt>
<wgt id='1062'> +1.5486000e+02 </wgt>
<wgt id='1063'> +1.5147000e+02 </wgt>
<wgt id='1064'> +1.5030000e+02 </wgt>
<wgt id='1065'> +1.4771000e+02 </wgt>
<wgt id='1066'> +1.4083000e+02 </wgt>
<wgt id='1067'> +1.5302000e+02 </wgt>
<wgt id='1068'> +1.5091000e+02 </wgt>
<wgt id='1069'> +1.6571000e+02 </wgt>
<wgt id='1070'> +1.5275000e+02 </wgt>
<wgt id='1071'> +1.4960000e+02 </wgt>
<wgt id='1072'> +1.5473000e+02 </wgt>
<wgt id='1073'> +1.5441000e+02 </wgt>
<wgt id='1074'> +1.5156000e+02 </wgt>
<wgt id='1075'> +1.5391000e+02 </wgt>
<wgt id='1076'> +1.5386000e+02 </wgt>
<wgt id='1077'> +1.4971000e+02 </wgt>
<wgt id='1078'> +1.6014000e+02 </wgt>
<wgt id='1079'> +1.5291000e+02 </wgt>
<wgt id='1080'> +1.5500000e+02 </wgt>
<wgt id='1081'> +1.5281000e+02 </wgt>
<wgt id='1082'> +1.5230000e+02 </wgt>
<wgt id='1083'> +1.5592000e+02 </wgt>
<wgt id='1084'> +1.5224000e+02 </wgt>
<wgt id='1085'> +1.5127000e+02 </wgt>
<wgt id='1086'> +1.4991000e+02 </wgt>
<wgt id='1087'> +1.5229000e+02 </wgt>
<wgt id='1088'> +1.4958000e+02 </wgt>
<wgt id='1089'> +1.5740000e+02 </wgt>
<wgt id='1090'> +1.5277000e+02 </wgt>
<wgt id='1091'> +1.4725000e+02 </wgt>
<wgt id='1092'> +1.5087000e+02 </wgt>
<wgt id='1093'> +1.5026000e+02 </wgt>
<wgt id='1094'> +1.5186000e+02 </wgt>
<wgt id='1095'> +1.4834000e+02 </wgt>
<wgt id='1096'> +1.5419000e+02 </wgt>
<wgt id='1097'> +1.4414000e+02 </wgt>
<wgt id='1098'> +1.5188000e+02 </wgt>
<wgt id='1099'> +1.4427000e+02 </wgt>
<wgt id='1100'> +1.5237000e+02 </wgt>
<wgt id='1101'> +1.4976000e+02 </wgt>
<wgt id='1102'> +1.4065000e+02 </wgt>
<wgt id='1103'> +1.5101000e+02 </wgt>
<wgt id='1104'> +1.5274000e+02 </wgt>
<wgt id='1105'> +1.5146096e+02 </wgt>
<wgt id='1106'> +6.8473920e+01 </wgt>
<wgt id='1107'> +8.4749192e+01 </wgt>
<wgt id='1108'> +8.2807570e+01 </wgt>
<wgt id='1109'> +7.4872830e+01 </wgt>
<wgt id='1110'> +9.2669033e+01 </wgt>
<wgt id='1111'> +6.7330177e+01 </wgt>
<wgt id='1112'> +6.0878503e+01 </wgt>
<wgt id='1113'> +7.5348454e+01 </wgt>
<wgt id='1114'> +7.7775272e+01 </wgt>
<wgt id='1115'> +7.8301856e+01 </wgt>
<wgt id='1116'> +7.9331316e+01 </wgt>
<wgt id='1117'> +7.6973128e+01 </wgt>
<wgt id='1118'> +7.7574004e+01 </wgt>
<wgt id='1119'> +7.9119905e+01 </wgt>
<wgt id='1120'> +7.5431581e+01 </wgt>
<wgt id='1121'> +7.9983209e+01 </wgt>
<wgt id='1122'> +7.8810209e+01 </wgt>
<wgt id='1123'> +7.9326575e+01 </wgt>
<wgt id='1124'> +7.2027589e+01 </wgt>
<wgt id='1125'> +7.5353272e+01 </wgt>
<wgt id='1126'> +7.7531721e+01 </wgt>
<wgt id='1127'> +7.7358596e+01 </wgt>
<wgt id='1128'> +7.6437257e+01 </wgt>
<wgt id='1129'> +7.8675376e+01 </wgt>
<wgt id='1130'> +7.7605825e+01 </wgt>
<wgt id='1131'> +7.7708925e+01 </wgt>
<wgt id='1132'> +7.9567091e+01 </wgt>
<wgt id='1133'> +7.8384609e+01 </wgt>
<wgt id='1134'> +7.8235256e+01 </wgt>
<wgt id='1135'> +7.9827319e+01 </wgt>
<wgt id='1136'> +8.0637289e+01 </wgt>
<wgt id='1137'> +8.0029986e+01 </wgt>
<wgt id='1138'> +7.7015002e+01 </wgt>
<wgt id='1139'> +7.9567968e+01 </wgt>
<wgt id='1140'> +7.7290284e+01 </wgt>
<wgt id='1141'> +7.6362516e+01 </wgt>
<wgt id='1142'> +7.9715738e+01 </wgt>
<wgt id='1143'> +7.5669725e+01 </wgt>
<wgt id='1144'> +7.9295600e+01 </wgt>
<wgt id='1145'> +7.8894034e+01 </wgt>
<wgt id='1146'> +7.8014236e+01 </wgt>
<wgt id='1147'> +7.8108966e+01 </wgt>
<wgt id='1148'> +7.6652312e+01 </wgt>
<wgt id='1149'> +7.5082156e+01 </wgt>
<wgt id='1150'> +7.7131194e+01 </wgt>
<wgt id='1151'> +7.8131677e+01 </wgt>
<wgt id='1152'> +7.5689555e+01 </wgt>
<wgt id='1153'> +7.7404866e+01 </wgt>
<wgt id='1154'> +7.5539166e+01 </wgt>
<wgt id='1155'> +7.8902057e+01 </wgt>
<wgt id='1156'> +7.9083567e+01 </wgt>
<wgt id='1157'> +7.8549354e+01 </wgt>
<wgt id='1158'> +7.7601534e+01 </wgt>
<wgt id='1159'> +7.8322764e+01 </wgt>
<wgt id='1160'> +7.5256593e+01 </wgt>
<wgt id='1161'> +7.7603565e+01 </wgt>
<wgt id='1162'> +8.0666459e+01 </wgt>
<wgt id='1163'> +7.9239301e+01 </wgt>
<wgt id='1164'> +7.6777743e+01 </wgt>
<wgt id='1165'> +7.7194552e+01 </wgt>
<wgt id='1166'> +8.0183964e+01 </wgt>
<wgt id='1167'> +7.7241032e+01 </wgt>
<wgt id='1168'> +7.9342837e+01 </wgt>
<wgt id='1169'> +7.8645664e+01 </wgt>
<wgt id='1170'> +7.8814555e+01 </wgt>
<wgt id='1171'> +7.9904358e+01 </wgt>
<wgt id='1172'> +8.1020919e+01 </wgt>
<wgt id='1173'> +7.6830908e+01 </wgt>
<wgt id='1174'> +7.9296979e+01 </wgt>
<wgt id='1175'> +7.6745719e+01 </wgt>
<wgt id='1176'> +7.6820454e+01 </wgt>
<wgt id='1177'> +7.5704118e+01 </wgt>
<wgt id='1178'> +7.6632553e+01 </wgt>
<wgt id='1179'> +7.8349492e+01 </wgt>
<wgt id='1180'> +7.8531932e+01 </wgt>
<wgt id='1181'> +7.6675931e+01 </wgt>
<wgt id='1182'> +7.8005837e+01 </wgt>
<wgt id='1183'> +7.6883049e+01 </wgt>
<wgt id='1184'> +7.8796329e+01 </wgt>
<wgt id='1185'> +7.9351921e+01 </wgt>
<wgt id='1186'> +7.8059255e+01 </wgt>
<wgt id='1187'> +7.7615647e+01 </wgt>
<wgt id='1188'> +7.5222743e+01 </wgt>
<wgt id='1189'> +7.6262143e+01 </wgt>
<wgt id='1190'> +7.5919586e+01 </wgt>
<wgt id='1191'> +7.7296070e+01 </wgt>
<wgt id='1192'> +8.0024629e+01 </wgt>
<wgt id='1193'> +7.6682999e+01 </wgt>
<wgt id='1194'> +7.4953805e+01 </wgt>
<wgt id='1195'> +7.9461382e+01 </wgt>
<wgt id='1196'> +7.7605825e+01 </wgt>
<wgt id='1197'> +7.2837430e+01 </wgt>
<wgt id='1198'> +7.8590162e+01 </wgt>
<wgt id='1199'> +7.7063931e+01 </wgt>
<wgt id='1200'> +8.1281081e+01 </wgt>
<wgt id='1201'> +7.6825518e+01 </wgt>
<wgt id='1202'> +7.6002778e+01 </wgt>
<wgt id='1203'> +6.8519452e+01 </wgt>
<wgt id='1204'> +7.7824761e+01 </wgt>
<wgt id='1205'> +7.9192005e+01 </wgt>
<wgt id='1206'> +7.6780502e+01 </wgt>
<wgt id='1207'> +7.8883589e+01 </wgt>
<wgt id='1208'> +7.8512460e+01 </wgt>
<wgt id='1209'> +7.9963761e+01 </wgt>
<wgt id='1210'> +8.0101103e+01 </wgt>
<wgt id='1211'> +7.6635525e+01 </wgt>
<wgt id='1212'> +7.6356908e+01 </wgt>
<wgt id='1213'> +7.9212626e+01 </wgt>
<wgt id='1214'> +8.1099720e+01 </wgt>
<wgt id='1215'> +7.6155246e+01 </wgt>
<wgt id='1216'> +7.8559225e+01 </wgt>
<wgt id='1217'> +7.8529086e+01 </wgt>
<wgt id='1218'> +7.8555773e+01 </wgt>
<wgt id='1219'> +7.8471564e+01 </wgt>
<wgt id='1220'> +7.8384643e+01 </wgt>
<wgt id='1221'> +7.8431358e+01 </wgt>
<wgt id='1222'> +7.8432103e+01 </wgt>
<wgt id='1223'> +7.8411317e+01 </wgt>
<wgt id='1224'> +7.8892751e+01 </wgt>
<wgt id='1225'> +7.8435112e+01 </wgt>
<wgt id='1226'> +7.8635347e+01 </wgt>
<wgt id='1227'> +7.8523939e+01 </wgt>
<wgt id='1228'> +7.8463785e+01 </wgt>
<wgt id='1229'> +7.8695728e+01 </wgt>
<wgt id='1230'> +7.8488219e+01 </wgt>
<wgt id='1231'> +7.8605427e+01 </wgt>
<wgt id='1232'> +7.8664243e+01 </wgt>
<wgt id='1233'> +7.8573401e+01 </wgt>
<wgt id='1234'> +7.8564958e+01 </wgt>
<wgt id='1235'> +7.8392655e+01 </wgt>
<wgt id='1236'> +7.8537253e+01 </wgt>
<wgt id='1237'> +7.8663719e+01 </wgt>
<wgt id='1238'> +7.8531038e+01 </wgt>
<wgt id='1239'> +7.8550924e+01 </wgt>
<wgt id='1240'> +7.8897429e+01 </wgt>
<wgt id='1241'> +7.8474906e+01 </wgt>
<wgt id='1242'> +7.8555959e+01 </wgt>
<wgt id='1243'> +7.8294102e+01 </wgt>
<wgt id='1244'> +7.8907069e+01 </wgt>
<wgt id='1245'> +7.8873015e+01 </wgt>
<wgt id='1246'> +7.7548602e+01 </wgt>
<wgt id='1247'> +7.8236362e+01 </wgt>
<wgt id='1248'> +7.8818309e+01 </wgt>
<wgt id='1249'> +7.8599401e+01 </wgt>
<wgt id='1250'> +7.8435930e+01 </wgt>
<wgt id='1251'> +7.8752165e+01 </wgt>
<wgt id='1252'> +7.8593682e+01 </wgt>
<wgt id='1253'> +7.8321356e+01 </wgt>
<wgt id='1254'> +7.8636192e+01 </wgt>
<wgt id='1255'> +7.8587677e+01 </wgt>
<wgt id='1256'> +7.8449637e+01 </wgt>
<wgt id='1257'> +7.8841978e+01 </wgt>
<wgt id='1258'> +7.8518896e+01 </wgt>
<wgt id='1259'> +7.8573335e+01 </wgt>
<wgt id='1260'> +7.8685509e+01 </wgt>
<wgt id='1261'> +7.8566225e+01 </wgt>
<wgt id='1262'> +7.8658573e+01 </wgt>
<wgt id='1263'> +7.8693792e+01 </wgt>
<wgt id='1264'> +7.8550152e+01 </wgt>
<wgt id='1265'> +7.8282112e+01 </wgt>
<wgt id='1266'> +7.8560072e+01 </wgt>
<wgt id='1267'> +7.8876002e+01 </wgt>
<wgt id='1268'> +7.8676039e+01 </wgt>
<wgt id='1269'> +7.8413202e+01 </wgt>
<wgt id='1270'> +7.8363099e+01 </wgt>
<wgt id='1271'> +7.8522786e+01 </wgt>
<wgt id='1272'> +7.8059966e+01 </wgt>
<wgt id='1273'> +7.8682555e+01 </wgt>
<wgt id='1274'> +7.8369703e+01 </wgt>
<wgt id='1275'> +7.8750268e+01 </wgt>
<wgt id='1276'> +7.8542145e+01 </wgt>
<wgt id='1277'> +7.8553086e+01 </wgt>
<wgt id='1278'> +7.8399469e+01 </wgt>
<wgt id='1279'> +7.8527831e+01 </wgt>
<wgt id='1280'> +7.8403775e+01 </wgt>
<wgt id='1281'> +7.8634576e+01 </wgt>
<wgt id='1282'> +7.8802220e+01 </wgt>
<wgt id='1283'> +7.8459968e+01 </wgt>
<wgt id='1284'> +7.8663063e+01 </wgt>
<wgt id='1285'> +7.8598975e+01 </wgt>
<wgt id='1286'> +7.8429451e+01 </wgt>
<wgt id='1287'> +7.8495943e+01 </wgt>
<wgt id='1288'> +7.8424001e+01 </wgt>
<wgt id='1289'> +7.8471245e+01 </wgt>
<wgt id='1290'> +7.8585574e+01 </wgt>
<wgt id='1291'> +7.8702653e+01 </wgt>
<wgt id='1292'> +7.8678664e+01 </wgt>
<wgt id='1293'> +7.8435037e+01 </wgt>
<wgt id='1294'> +7.8534069e+01 </wgt>
<wgt id='1295'> +7.8558661e+01 </wgt>
<wgt id='1296'> +7.8597104e+01 </wgt>
<wgt id='1297'> +7.8336172e+01 </wgt>
<wgt id='1298'> +7.8480967e+01 </wgt>
<wgt id='1299'> +7.8427313e+01 </wgt>
<wgt id='1300'> +7.8699658e+01 </wgt>
<wgt id='1301'> +7.8458719e+01 </wgt>
<wgt id='1302'> +7.8535981e+01 </wgt>
<wgt id='1303'> +7.8554215e+01 </wgt>
<wgt id='1304'> +7.8509269e+01 </wgt>
<wgt id='1305'> +7.8486835e+01 </wgt>
<wgt id='1306'> +7.8587454e+01 </wgt>
<wgt id='1307'> +7.8616300e+01 </wgt>
<wgt id='1308'> +7.8496589e+01 </wgt>
<wgt id='1309'> +7.8535584e+01 </wgt>
<wgt id='1310'> +7.8538587e+01 </wgt>
<wgt id='1311'> +7.8587692e+01 </wgt>
<wgt id='1312'> +7.8617337e+01 </wgt>
<wgt id='1313'> +7.8431472e+01 </wgt>
<wgt id='1314'> +7.8529010e+01 </wgt>
<wgt id='1315'> +7.8590962e+01 </wgt>
<wgt id='1316'> +7.8660882e+01 </wgt>
<wgt id='1317'> +7.7901618e+01 </wgt>
<wgt id='1318'> +7.9378365e+01 </wgt>
<wgt id='1319'> +9.3851269e+01 </wgt>
<wgt id='1320'> +7.9650467e+01 </wgt>
<wgt id='1321'> +8.1324392e+01 </wgt>
<wgt id='1322'> +7.9685823e+01 </wgt>
<wgt id='1323'> +7.9410009e+01 </wgt>
<wgt id='1324'> +8.0602231e+01 </wgt>
<wgt id='1325'> +8.0297756e+01 </wgt>
<wgt id='1326'> +7.9356361e+01 </wgt>
<wgt id='1327'> +7.9868825e+01 </wgt>
<wgt id='1328'> +7.9285092e+01 </wgt>
<wgt id='1329'> +7.8953038e+01 </wgt>
<wgt id='1330'> +7.9720394e+01 </wgt>
<wgt id='1331'> +7.9102157e+01 </wgt>
<wgt id='1332'> +8.0237547e+01 </wgt>
<wgt id='1333'> +7.6971778e+01 </wgt>
<wgt id='1334'> +8.1141510e+01 </wgt>
<wgt id='1335'> +7.9648626e+01 </wgt>
<wgt id='1336'> +7.9134074e+01 </wgt>
<wgt id='1337'> +8.0796091e+01 </wgt>
<wgt id='1338'> +7.8296272e+01 </wgt>
<wgt id='1339'> +8.0009519e+01 </wgt>
<wgt id='1340'> +7.9259752e+01 </wgt>
<wgt id='1341'> +7.9381498e+01 </wgt>
<wgt id='1342'> +8.0168839e+01 </wgt>
<wgt id='1343'> +7.9487861e+01 </wgt>
<wgt id='1344'> +8.0117270e+01 </wgt>
<wgt id='1345'> +7.8248648e+01 </wgt>
<wgt id='1346'> +8.0996575e+01 </wgt>
<wgt id='1347'> +7.9116031e+01 </wgt>
<wgt id='1348'> +8.0484654e+01 </wgt>
<wgt id='1349'> +7.9874994e+01 </wgt>
<wgt id='1350'> +7.9571510e+01 </wgt>
<wgt id='1351'> +7.9455842e+01 </wgt>
<wgt id='1352'> +7.9896849e+01 </wgt>
<wgt id='1353'> +7.9523072e+01 </wgt>
<wgt id='1354'> +7.9980244e+01 </wgt>
<wgt id='1355'> +8.2356763e+01 </wgt>
<wgt id='1356'> +7.7150262e+01 </wgt>
<wgt id='1357'> +7.9654041e+01 </wgt>
<wgt id='1358'> +7.9333595e+01 </wgt>
<wgt id='1359'> +7.8426553e+01 </wgt>
<wgt id='1360'> +8.0175957e+01 </wgt>
<wgt id='1361'> +8.0992022e+01 </wgt>
<wgt id='1362'> +7.9048095e+01 </wgt>
<wgt id='1363'> +7.8618568e+01 </wgt>
<wgt id='1364'> +7.9800966e+01 </wgt>
<wgt id='1365'> +7.9697420e+01 </wgt>
<wgt id='1366'> +7.9056615e+01 </wgt>
<wgt id='1367'> +7.9735812e+01 </wgt>
<wgt id='1368'> +8.0610988e+01 </wgt>
<wgt id='1369'> +7.9679686e+01 </wgt>
<wgt id='1370'> +8.0507942e+01 </wgt>
<wgt id='1371'> +7.9137334e+01 </wgt>
<wgt id='1372'> +7.8985837e+01 </wgt>
<wgt id='1373'> +7.8571766e+01 </wgt>
<wgt id='1374'> +7.8077855e+01 </wgt>
<wgt id='1375'> +8.0048825e+01 </wgt>
<wgt id='1376'> +7.8892473e+01 </wgt>
<wgt id='1377'> +7.8561320e+01 </wgt>
<wgt id='1378'> +8.0554189e+01 </wgt>
<wgt id='1379'> +7.6805738e+01 </wgt>
<wgt id='1380'> +7.6043424e+01 </wgt>
<wgt id='1381'> +7.7456325e+01 </wgt>
<wgt id='1382'> +8.5722248e+01 </wgt>
<wgt id='1383'> +7.6277169e+01 </wgt>
<wgt id='1384'> +7.6503274e+01 </wgt>
<wgt id='1385'> +1.0130610e+02 </wgt>
<wgt id='1386'> +1.0140478e+02 </wgt>
<wgt id='1387'> +1.0119078e+02 </wgt>
<wgt id='1388'> +1.0131856e+02 </wgt>
<wgt id='1389'> +1.0127487e+02 </wgt>
<wgt id='1390'> +1.0144626e+02 </wgt>
<wgt id='1391'> +1.0113506e+02 </wgt>
<wgt id='1392'> +1.0181430e+02 </wgt>
<wgt id='1393'> +1.0094427e+02 </wgt>
<wgt id='1394'> +1.0047419e+02 </wgt>
<wgt id='1395'> +1.0233993e+02 </wgt>
<wgt id='1396'> +1.0209755e+02 </wgt>
<wgt id='1397'> +1.0089055e+02 </wgt>
<wgt id='1398'> +9.9796708e+01 </wgt>
<wgt id='1399'> +1.0242488e+02 </wgt>
<wgt id='1400'> +1.0118053e+02 </wgt>
<wgt id='1401'> +1.0139936e+02 </wgt>
<wgt id='1402'> +1.0108365e+02 </wgt>
<wgt id='1403'> +1.0140432e+02 </wgt>
<wgt id='1404'> +9.9351463e+01 </wgt>
<wgt id='1405'> +1.0230385e+02 </wgt>
<wgt id='1406'> +1.0141077e+02 </wgt>
<wgt id='1407'> +1.0112745e+02 </wgt>
<wgt id='1408'> +1.0108492e+02 </wgt>
<wgt id='1409'> +1.0174801e+02 </wgt>
<wgt id='1410'> +1.0167950e+02 </wgt>
<wgt id='1411'> +1.0047747e+02 </wgt>
<wgt id='1412'> +1.0190414e+02 </wgt>
<wgt id='1413'> +1.0032930e+02 </wgt>
<wgt id='1414'> +1.0084020e+02 </wgt>
<wgt id='1415'> +1.0170131e+02 </wgt>
<wgt id='1416'> +1.0072293e+02 </wgt>
<wgt id='1417'> +1.0149676e+02 </wgt>
<wgt id='1418'> +1.0097066e+02 </wgt>
<wgt id='1419'> +1.0190701e+02 </wgt>
<wgt id='1420'> +1.0234087e+02 </wgt>
<wgt id='1421'> +1.0135013e+02 </wgt>
<wgt id='1422'> +1.0197621e+02 </wgt>
<wgt id='1423'> +1.0048025e+02 </wgt>
<wgt id='1424'> +1.0130543e+02 </wgt>
<wgt id='1425'> +1.0122528e+02 </wgt>
<wgt id='1426'> +1.0171788e+02 </wgt>
<wgt id='1427'> +1.0089326e+02 </wgt>
<wgt id='1428'> +1.0188217e+02 </wgt>
<wgt id='1429'> +1.0045486e+02 </wgt>
<wgt id='1430'> +1.0126506e+02 </wgt>
<wgt id='1431'> +1.0144247e+02 </wgt>
<wgt id='1432'> +1.0126000e+02 </wgt>
<wgt id='1433'> +1.0144526e+02 </wgt>
<wgt id='1434'> +1.0101638e+02 </wgt>
<wgt id='1435'> +1.0023294e+02 </wgt>
<wgt id='1436'> +7.4633591e+01 </wgt>
<wgt id='1437'> +7.4622386e+01 </wgt>
<wgt id='1438'> +7.4679187e+01 </wgt>
<wgt id='1439'> +7.4634255e+01 </wgt>
<wgt id='1440'> +7.4617329e+01 </wgt>
<wgt id='1441'> +7.4899605e+01 </wgt>
<wgt id='1442'> +7.4392228e+01 </wgt>
<wgt id='1443'> +7.4581399e+01 </wgt>
<wgt id='1444'> +7.4813928e+01 </wgt>
<wgt id='1445'> +7.4188017e+01 </wgt>
<wgt id='1446'> +7.4994956e+01 </wgt>
<wgt id='1447'> +7.4524917e+01 </wgt>
<wgt id='1448'> +7.4696539e+01 </wgt>
<wgt id='1449'> +7.4888892e+01 </wgt>
<wgt id='1450'> +7.4752018e+01 </wgt>
<wgt id='1451'> +7.5051689e+01 </wgt>
<wgt id='1452'> +7.4653091e+01 </wgt>
<wgt id='1453'> +7.4491276e+01 </wgt>
<wgt id='1454'> +7.4666742e+01 </wgt>
<wgt id='1455'> +7.4753012e+01 </wgt>
<wgt id='1456'> +7.4512751e+01 </wgt>
<wgt id='1457'> +7.4859307e+01 </wgt>
<wgt id='1458'> +7.4768740e+01 </wgt>
<wgt id='1459'> +7.3705441e+01 </wgt>
<wgt id='1460'> +7.4519617e+01 </wgt>
<wgt id='1461'> +7.4677522e+01 </wgt>
<wgt id='1462'> +7.3942948e+01 </wgt>
<wgt id='1463'> +7.5598733e+01 </wgt>
<wgt id='1464'> +7.4998062e+01 </wgt>
<wgt id='1465'> +7.5735181e+01 </wgt>
<wgt id='1466'> +7.7029575e+01 </wgt>
<wgt id='1467'> +7.6898234e+01 </wgt>
<wgt id='1468'> +7.6329366e+01 </wgt>
<wgt id='1469'> +7.6980403e+01 </wgt>
<wgt id='1470'> +7.7242760e+01 </wgt>
<wgt id='1471'> +7.7473764e+01 </wgt>
<wgt id='1472'> +7.6181583e+01 </wgt>
<wgt id='1473'> +7.7986625e+01 </wgt>
<wgt id='1474'> +7.8143007e+01 </wgt>
<wgt id='1475'> +7.6911765e+01 </wgt>
<wgt id='1476'> +7.6787646e+01 </wgt>
<wgt id='1477'> +7.6693608e+01 </wgt>
<wgt id='1478'> +7.6652592e+01 </wgt>
<wgt id='1479'> +7.7057877e+01 </wgt>
<wgt id='1480'> +7.6964850e+01 </wgt>
<wgt id='1481'> +7.6803307e+01 </wgt>
<wgt id='1482'> +7.6728504e+01 </wgt>
<wgt id='1483'> +7.6929740e+01 </wgt>
<wgt id='1484'> +7.7710376e+01 </wgt>
<wgt id='1485'> +7.6732277e+01 </wgt>
<wgt id='1486'> +7.7080084e+01 </wgt>
<wgt id='1487'> +7.7248707e+01 </wgt>
<wgt id='1488'> +7.7118734e+01 </wgt>
<wgt id='1489'> +7.7737117e+01 </wgt>
<wgt id='1490'> +7.6723502e+01 </wgt>
<wgt id='1491'> +7.7343117e+01 </wgt>
<wgt id='1492'> +7.6792270e+01 </wgt>
<wgt id='1493'> +7.7110978e+01 </wgt>
<wgt id='1494'> +7.7121604e+01 </wgt>
<wgt id='1495'> +7.6814828e+01 </wgt>
<wgt id='1496'> +7.6720902e+01 </wgt>
<wgt id='1497'> +7.6889902e+01 </wgt>
<wgt id='1498'> +7.7509892e+01 </wgt>
<wgt id='1499'> +7.7029529e+01 </wgt>
<wgt id='1500'> +7.6559739e+01 </wgt>
<wgt id='1501'> +7.7442533e+01 </wgt>
<wgt id='1502'> +7.6830171e+01 </wgt>
<wgt id='1503'> +7.7026312e+01 </wgt>
<wgt id='1504'> +7.6806024e+01 </wgt>
<wgt id='1505'> +7.6699068e+01 </wgt>
<wgt id='1506'> +7.6955958e+01 </wgt>
<wgt id='1507'> +7.6857739e+01 </wgt>
<wgt id='1508'> +7.7266109e+01 </wgt>
<wgt id='1509'> +7.7022922e+01 </wgt>
<wgt id='1510'> +7.6843995e+01 </wgt>
<wgt id='1511'> +7.7181824e+01 </wgt>
<wgt id='1512'> +7.7011933e+01 </wgt>
<wgt id='1513'> +7.7349802e+01 </wgt>
<wgt id='1514'> +7.6873431e+01 </wgt>
<wgt id='1515'> +7.7015804e+01 </wgt>
<wgt id='1516'> +7.7134175e+01 </wgt>
<wgt id='1517'> +7.6645851e+01 </wgt>
<wgt id='1518'> +7.7105420e+01 </wgt>
<wgt id='1519'> +7.7132703e+01 </wgt>
<wgt id='1520'> +7.6843873e+01 </wgt>
<wgt id='1521'> +7.7031629e+01 </wgt>
<wgt id='1522'> +7.7021421e+01 </wgt>
<wgt id='1523'> +7.6856033e+01 </wgt>
<wgt id='1524'> +7.7200046e+01 </wgt>
<wgt id='1525'> +7.7228923e+01 </wgt>
<wgt id='1526'> +7.6847210e+01 </wgt>
<wgt id='1527'> +7.7019348e+01 </wgt>
<wgt id='1528'> +7.6846928e+01 </wgt>
<wgt id='1529'> +7.7186860e+01 </wgt>
<wgt id='1530'> +7.7018691e+01 </wgt>
<wgt id='1531'> +7.7192872e+01 </wgt>
<wgt id='1532'> +7.6983665e+01 </wgt>
<wgt id='1533'> +7.7097162e+01 </wgt>
<wgt id='1534'> +7.7046777e+01 </wgt>
<wgt id='1535'> +7.7046484e+01 </wgt>
<wgt id='1536'> +7.7049655e+01 </wgt>
<wgt id='1537'> +7.6967255e+01 </wgt>
<wgt id='1538'> +7.7052448e+01 </wgt>
<wgt id='1539'> +7.6922378e+01 </wgt>
<wgt id='1540'> +7.6986413e+01 </wgt>
<wgt id='1541'> +7.7112946e+01 </wgt>
<wgt id='1542'> +7.7027338e+01 </wgt>
<wgt id='1543'> +7.7004126e+01 </wgt>
<wgt id='1544'> +7.6984142e+01 </wgt>
<wgt id='1545'> +7.7088602e+01 </wgt>
<wgt id='1546'> +7.7030632e+01 </wgt>
<wgt id='1547'> +7.7002110e+01 </wgt>
<wgt id='1548'> +7.6890960e+01 </wgt>
<wgt id='1549'> +7.7087926e+01 </wgt>
<wgt id='1550'> +7.6980684e+01 </wgt>
<wgt id='1551'> +7.6950516e+01 </wgt>
<wgt id='1552'> +7.7035774e+01 </wgt>
<wgt id='1553'> +7.6927532e+01 </wgt>
<wgt id='1554'> +7.7057021e+01 </wgt>
<wgt id='1555'> +7.7112091e+01 </wgt>
<wgt id='1556'> +7.7039845e+01 </wgt>
<wgt id='1557'> +7.7010348e+01 </wgt>
<wgt id='1558'> +7.7008721e+01 </wgt>
<wgt id='1559'> +7.6973383e+01 </wgt>
<wgt id='1560'> +7.7039242e+01 </wgt>
<wgt id='1561'> +7.6974686e+01 </wgt>
<wgt id='1562'> +7.6990788e+01 </wgt>
<wgt id='1563'> +7.7048918e+01 </wgt>
<wgt id='1564'> +7.7035297e+01 </wgt>
<wgt id='1565'> +7.7034231e+01 </wgt>
<wgt id='1566'> +7.7015486e+01 </wgt>
<wgt id='1567'> +7.6240347e+01 </wgt>
<wgt id='1568'> +7.7646594e+01 </wgt>
<wgt id='1569'> +7.6238946e+01 </wgt>
<wgt id='1570'> +7.6359739e+01 </wgt>
<wgt id='1571'> +7.6004001e+01 </wgt>
<wgt id='1572'> +7.6401922e+01 </wgt>
<wgt id='1573'> +7.6173293e+01 </wgt>
<wgt id='1574'> +7.5956337e+01 </wgt>
<wgt id='1575'> +7.6673539e+01 </wgt>
<wgt id='1576'> +7.6961183e+01 </wgt>
<wgt id='1577'> +7.6478672e+01 </wgt>
<wgt id='1578'> +7.6037182e+01 </wgt>
<wgt id='1579'> +7.6465585e+01 </wgt>
<wgt id='1580'> +7.6517971e+01 </wgt>
<wgt id='1581'> +7.5823700e+01 </wgt>
<wgt id='1582'> +7.6172668e+01 </wgt>
<wgt id='1583'> +7.5695669e+01 </wgt>
<wgt id='1584'> +7.6807784e+01 </wgt>
<wgt id='1585'> +7.6146140e+01 </wgt>
<wgt id='1586'> +7.6341202e+01 </wgt>
<wgt id='1587'> +7.6255595e+01 </wgt>
<wgt id='1588'> +7.5802153e+01 </wgt>
<wgt id='1589'> +7.6327170e+01 </wgt>
<wgt id='1590'> +7.6332704e+01 </wgt>
<wgt id='1591'> +7.5584738e+01 </wgt>
<wgt id='1592'> +7.6358194e+01 </wgt>
<wgt id='1593'> +7.6398397e+01 </wgt>
<wgt id='1594'> +7.5985973e+01 </wgt>
<wgt id='1595'> +7.5912176e+01 </wgt>
<wgt id='1596'> +7.6514570e+01 </wgt>
<wgt id='1597'> +7.6214292e+01 </wgt>
<wgt id='1598'> +7.5795627e+01 </wgt>
<wgt id='1599'> +7.6152781e+01 </wgt>
<wgt id='1600'> +7.6170750e+01 </wgt>
<wgt id='1601'> +7.6600652e+01 </wgt>
<wgt id='1602'> +7.6326929e+01 </wgt>
<wgt id='1603'> +7.6171337e+01 </wgt>
<wgt id='1604'> +7.6313284e+01 </wgt>
<wgt id='1605'> +7.6165777e+01 </wgt>
<wgt id='1606'> +7.6724095e+01 </wgt>
<wgt id='1607'> +7.6787840e+01 </wgt>
<wgt id='1608'> +7.6153117e+01 </wgt>
<wgt id='1609'> +7.6319119e+01 </wgt>
<wgt id='1610'> +7.5784214e+01 </wgt>
<wgt id='1611'> +7.6065722e+01 </wgt>
<wgt id='1612'> +7.6392952e+01 </wgt>
<wgt id='1613'> +7.6326480e+01 </wgt>
<wgt id='1614'> +7.6178183e+01 </wgt>
<wgt id='1615'> +7.6230688e+01 </wgt>
<wgt id='1616'> +7.5967505e+01 </wgt>
<wgt id='1617'> +7.6058035e+01 </wgt>
<wgt id='1618'> +7.6047769e+01 </wgt>
<wgt id='1619'> +7.6286074e+01 </wgt>
<wgt id='1620'> +7.6299989e+01 </wgt>
<wgt id='1621'> +7.6172819e+01 </wgt>
<wgt id='1622'> +7.6080145e+01 </wgt>
<wgt id='1623'> +7.6297262e+01 </wgt>
<wgt id='1624'> +7.6034700e+01 </wgt>
<wgt id='1625'> +7.6408760e+01 </wgt>
<wgt id='1626'> +7.6337502e+01 </wgt>
<wgt id='1627'> +7.6219097e+01 </wgt>
<wgt id='1628'> +7.6297991e+01 </wgt>
<wgt id='1629'> +7.6104106e+01 </wgt>
<wgt id='1630'> +7.6463313e+01 </wgt>
<wgt id='1631'> +7.6090215e+01 </wgt>
<wgt id='1632'> +7.6330198e+01 </wgt>
<wgt id='1633'> +7.6118395e+01 </wgt>
<wgt id='1634'> +7.6057898e+01 </wgt>
<wgt id='1635'> +7.6141343e+01 </wgt>
<wgt id='1636'> +7.6190206e+01 </wgt>
<wgt id='1637'> +7.6274542e+01 </wgt>
<wgt id='1638'> +7.6182171e+01 </wgt>
<wgt id='1639'> +7.6158883e+01 </wgt>
<wgt id='1640'> +7.6357678e+01 </wgt>
<wgt id='1641'> +7.6166125e+01 </wgt>
<wgt id='1642'> +7.6205620e+01 </wgt>
<wgt id='1643'> +7.6153350e+01 </wgt>
<wgt id='1644'> +7.6285727e+01 </wgt>
<wgt id='1645'> +7.6257856e+01 </wgt>
<wgt id='1646'> +7.6277012e+01 </wgt>
<wgt id='1647'> +7.6246327e+01 </wgt>
<wgt id='1648'> +7.6229516e+01 </wgt>
<wgt id='1649'> +7.6335325e+01 </wgt>
<wgt id='1650'> +7.6164504e+01 </wgt>
<wgt id='1651'> +7.6237562e+01 </wgt>
<wgt id='1652'> +7.6169493e+01 </wgt>
<wgt id='1653'> +7.6173665e+01 </wgt>
<wgt id='1654'> +7.6290664e+01 </wgt>
<wgt id='1655'> +7.6288938e+01 </wgt>
<wgt id='1656'> +7.6155170e+01 </wgt>
<wgt id='1657'> +7.6259960e+01 </wgt>
<wgt id='1658'> +7.6202329e+01 </wgt>
<wgt id='1659'> +7.6322256e+01 </wgt>
<wgt id='1660'> +7.6204499e+01 </wgt>
<wgt id='1661'> +7.6169335e+01 </wgt>
<wgt id='1662'> +7.6266224e+01 </wgt>
<wgt id='1663'> +7.6241599e+01 </wgt>
<wgt id='1664'> +7.6233938e+01 </wgt>
<wgt id='1665'> +7.6287860e+01 </wgt>
<wgt id='1666'> +7.6260799e+01 </wgt>
<wgt id='1667'> +7.6259500e+01 </wgt>
<wgt id='1668'> +7.6211200e+01 </wgt>
<wgt id='1669'> +7.6237653e+01 </wgt>
<wgt id='1670'> +7.5674738e+01 </wgt>
<wgt id='1671'> +7.6696616e+01 </wgt>
<wgt id='1672'> +7.7022201e+01 </wgt>
<wgt id='1673'> +7.6438253e+01 </wgt>
<wgt id='1674'> +7.6168627e+01 </wgt>
<wgt id='1675'> +7.6919167e+01 </wgt>
<wgt id='1676'> +7.7839352e+01 </wgt>
<wgt id='1677'> +7.7176202e+01 </wgt>
<wgt id='1678'> +7.7826563e+01 </wgt>
<wgt id='1679'> +7.6896274e+01 </wgt>
<wgt id='1680'> +7.7010645e+01 </wgt>
<wgt id='1681'> +7.7332275e+01 </wgt>
<wgt id='1682'> +7.7045931e+01 </wgt>
<wgt id='1683'> +7.7436926e+01 </wgt>
<wgt id='1684'> +7.7240049e+01 </wgt>
<wgt id='1685'> +7.6897228e+01 </wgt>
<wgt id='1686'> +7.6706898e+01 </wgt>
<wgt id='1687'> +7.7280576e+01 </wgt>
<wgt id='1688'> +7.7378055e+01 </wgt>
<wgt id='1689'> +7.5700563e+01 </wgt>
<wgt id='1690'> +7.6863609e+01 </wgt>
<wgt id='1691'> +7.7177938e+01 </wgt>
<wgt id='1692'> +7.7046178e+01 </wgt>
<wgt id='1693'> +7.6935512e+01 </wgt>
<wgt id='1694'> +7.6782603e+01 </wgt>
<wgt id='1695'> +7.7083991e+01 </wgt>
<wgt id='1696'> +7.6798942e+01 </wgt>
<wgt id='1697'> +7.7123765e+01 </wgt>
<wgt id='1698'> +7.5673791e+01 </wgt>
<wgt id='1699'> +7.7032864e+01 </wgt>
<wgt id='1700'> +7.7018609e+01 </wgt>
<wgt id='1701'> +7.7057136e+01 </wgt>
<wgt id='1702'> +7.7013278e+01 </wgt>
<wgt id='1703'> +7.6240347e+01 </wgt>
<wgt id='1704'> +7.7646594e+01 </wgt>
<wgt id='1705'> +7.6236892e+01 </wgt>
<wgt id='1706'> +7.6801285e+01 </wgt>
<wgt id='1707'> +7.6782398e+01 </wgt>
<wgt id='1708'> +7.6173097e+01 </wgt>
<wgt id='1709'> +7.5930794e+01 </wgt>
<wgt id='1710'> +7.5613525e+01 </wgt>
<wgt id='1711'> +7.6297598e+01 </wgt>
<wgt id='1712'> +7.6187234e+01 </wgt>
<wgt id='1713'> +7.6156259e+01 </wgt>
<wgt id='1714'> +7.5949786e+01 </wgt>
<wgt id='1715'> +7.7218979e+01 </wgt>
<wgt id='1716'> +7.6465163e+01 </wgt>
<wgt id='1717'> +7.6368000e+01 </wgt>
<wgt id='1718'> +7.6097304e+01 </wgt>
<wgt id='1719'> +7.6116724e+01 </wgt>
<wgt id='1720'> +7.5755321e+01 </wgt>
<wgt id='1721'> +7.6054041e+01 </wgt>
<wgt id='1722'> +7.5983172e+01 </wgt>
<wgt id='1723'> +7.6266390e+01 </wgt>
<wgt id='1724'> +7.6597887e+01 </wgt>
<wgt id='1725'> +7.6360810e+01 </wgt>
<wgt id='1726'> +7.4938420e+01 </wgt>
<wgt id='1727'> +7.6382021e+01 </wgt>
<wgt id='1728'> +7.6157351e+01 </wgt>
<wgt id='1729'> +7.6161512e+01 </wgt>
<wgt id='1730'> +7.6331973e+01 </wgt>
<wgt id='1731'> +7.6230304e+01 </wgt>
<wgt id='1732'> +7.6266392e+01 </wgt>
<wgt id='1733'> +7.6214522e+01 </wgt>
<wgt id='1734'> +7.6187173e+01 </wgt>
<wgt id='1735'> +7.6286095e+01 </wgt>
<wgt id='1736'> +7.5674738e+01 </wgt>
<wgt id='1737'> +7.6696616e+01 </wgt>
<wgt id='1738'> +8.0241649e+01 </wgt>
<wgt id='1739'> +8.0251844e+01 </wgt>
<wgt id='1740'> +8.0231303e+01 </wgt>
<wgt id='1741'> +8.0357400e+01 </wgt>
<wgt id='1742'> +8.0125634e+01 </wgt>
<wgt id='1743'> +8.0262898e+01 </wgt>
<wgt id='1744'> +8.0220231e+01 </wgt>
<wgt id='1745'> +7.9946736e+01 </wgt>
<wgt id='1746'> +8.0534405e+01 </wgt>
<wgt id='1747'> +7.9615404e+01 </wgt>
<wgt id='1748'> +8.0827308e+01 </wgt>
<wgt id='1749'> +8.0616373e+01 </wgt>
<wgt id='1750'> +7.9810403e+01 </wgt>
<wgt id='1751'> +8.0315575e+01 </wgt>
<wgt id='1752'> +8.0163450e+01 </wgt>
<wgt id='1753'> +8.0875597e+01 </wgt>
<wgt id='1754'> +7.9755607e+01 </wgt>
<wgt id='1755'> +8.0682817e+01 </wgt>
<wgt id='1756'> +7.9646068e+01 </wgt>
<wgt id='1757'> +7.8464610e+01 </wgt>
<wgt id='1758'> +8.2007644e+01 </wgt>
<wgt id='1759'> +7.8606517e+01 </wgt>
<wgt id='1760'> +8.1768690e+01 </wgt>
<wgt id='1761'> +7.9024785e+01 </wgt>
<wgt id='1762'> +8.1146177e+01 </wgt>
<wgt id='1763'> +8.1243737e+01 </wgt>
<wgt id='1764'> +7.9305359e+01 </wgt>
<wgt id='1765'> +8.0016250e+01 </wgt>
<wgt id='1766'> +8.0520742e+01 </wgt>
<wgt id='1767'> +8.0241649e+01 </wgt>
<wgt id='1768'> +8.2227070e+01 </wgt>
<wgt id='1769'> +7.8323208e+01 </wgt>
<wgt id='1770'> +8.8437989e+01 </wgt>
<wgt id='1771'> +8.8625545e+01 </wgt>
<wgt id='1772'> +8.1229826e+01 </wgt>
<wgt id='1773'> +7.9901244e+01 </wgt>
<wgt id='1774'> +8.0133049e+01 </wgt>
<wgt id='1775'> +8.0321966e+01 </wgt>
<wgt id='1776'> +7.9962665e+01 </wgt>
<wgt id='1777'> +8.0523278e+01 </wgt>
<wgt id='1778'> +8.0022053e+01 </wgt>
<wgt id='1779'> +8.0697531e+01 </wgt>
<wgt id='1780'> +8.2225384e+01 </wgt>
<wgt id='1781'> +8.1157457e+01 </wgt>
<wgt id='1782'> +8.1159127e+01 </wgt>
<wgt id='1783'> +8.1122595e+01 </wgt>
<wgt id='1784'> +8.1284061e+01 </wgt>
<wgt id='1785'> +8.0997362e+01 </wgt>
<wgt id='1786'> +8.1256898e+01 </wgt>
<wgt id='1787'> +8.1024769e+01 </wgt>
<wgt id='1788'> +8.0959829e+01 </wgt>
<wgt id='1789'> +8.1316746e+01 </wgt>
<wgt id='1790'> +8.1173510e+01 </wgt>
<wgt id='1791'> +8.1099332e+01 </wgt>
<wgt id='1792'> +8.0561426e+01 </wgt>
<wgt id='1793'> +8.1678068e+01 </wgt>
<wgt id='1794'> +8.1174759e+01 </wgt>
<wgt id='1795'> +8.1112720e+01 </wgt>
<wgt id='1796'> +8.1216598e+01 </wgt>
<wgt id='1797'> +8.1301783e+01 </wgt>
<wgt id='1798'> +8.0445183e+01 </wgt>
<wgt id='1799'> +8.1813393e+01 </wgt>
<wgt id='1800'> +7.9431947e+01 </wgt>
<wgt id='1801'> +8.2764251e+01 </wgt>
<wgt id='1802'> +8.1227986e+01 </wgt>
<wgt id='1803'> +8.0950444e+01 </wgt>
<wgt id='1804'> +8.1882737e+01 </wgt>
<wgt id='1805'> +8.0442015e+01 </wgt>
<wgt id='1806'> +8.1487060e+01 </wgt>
<wgt id='1807'> +8.0877583e+01 </wgt>
<wgt id='1808'> +8.1125221e+01 </wgt>
<wgt id='1809'> +8.1300231e+01 </wgt>
<wgt id='1810'> +8.1154739e+01 </wgt>
<wgt id='1811'> +8.2718108e+01 </wgt>
<wgt id='1812'> +7.8510092e+01 </wgt>
<wgt id='1813'> +8.7376072e+01 </wgt>
<wgt id='1814'> +8.6777117e+01 </wgt>
<wgt id='1815'> +8.4354851e+01 </wgt>
<wgt id='1816'> +7.9698574e+01 </wgt>
<wgt id='1817'> +8.1048409e+01 </wgt>
<wgt id='1818'> +8.1209254e+01 </wgt>
<wgt id='1819'> +7.9536395e+01 </wgt>
<wgt id='1820'> +8.3850553e+01 </wgt>
<wgt id='1821'> +7.9487623e+01 </wgt>
<wgt id='1822'> +8.1647846e+01 </wgt>
<wgt id='1823'> +7.8226784e+01 </wgt>
<wgt id='1824'> +7.8997169e+01 </wgt>
<wgt id='1825'> +7.8977989e+01 </wgt>
<wgt id='1826'> +7.8957726e+01 </wgt>
<wgt id='1827'> +7.8936333e+01 </wgt>
<wgt id='1828'> +7.8916431e+01 </wgt>
<wgt id='1829'> +7.8896381e+01 </wgt>
<wgt id='1830'> +7.8875943e+01 </wgt>
<wgt id='1831'> +7.8855595e+01 </wgt>
<wgt id='1832'> +7.8835503e+01 </wgt>
<wgt id='1833'> +7.8814560e+01 </wgt>
<wgt id='1834'> +7.8793786e+01 </wgt>
<wgt id='1835'> +7.8775009e+01 </wgt>
<wgt id='1836'> +7.8754235e+01 </wgt>
<wgt id='1837'> +7.8732569e+01 </wgt>
<wgt id='1838'> +7.8713387e+01 </wgt>
<wgt id='1839'> +7.8692770e+01 </wgt>
<wgt id='1840'> +7.8671726e+01 </wgt>
<wgt id='1841'> +7.8653110e+01 </wgt>
<wgt id='1842'> +7.8632132e+01 </wgt>
<wgt id='1843'> +7.8611436e+01 </wgt>
<wgt id='1844'> +7.8592048e+01 </wgt>
<wgt id='1845'> +7.8571358e+01 </wgt>
<wgt id='1846'> +7.8551225e+01 </wgt>
<wgt id='1847'> +7.8530306e+01 </wgt>
<wgt id='1848'> +7.8510607e+01 </wgt>
<wgt id='1849'> +7.8489707e+01 </wgt>
<wgt id='1850'> +7.8469493e+01 </wgt>
<wgt id='1851'> +7.8450084e+01 </wgt>
<wgt id='1852'> +7.8429319e+01 </wgt>
<wgt id='1853'> +7.8408910e+01 </wgt>
<wgt id='1854'> +7.8389417e+01 </wgt>
<wgt id='1855'> +7.5855511e+01 </wgt>
<wgt id='1856'> +7.5954294e+01 </wgt>
<wgt id='1857'> +7.5626683e+01 </wgt>
<wgt id='1858'> +7.6010845e+01 </wgt>
<wgt id='1859'> +7.5785621e+01 </wgt>
<wgt id='1860'> +7.5569306e+01 </wgt>
<wgt id='1861'> +7.6294200e+01 </wgt>
<wgt id='1862'> +7.6586512e+01 </wgt>
<wgt id='1863'> +7.6094869e+01 </wgt>
<wgt id='1864'> +7.5660906e+01 </wgt>
<wgt id='1865'> +7.6069571e+01 </wgt>
<wgt id='1866'> +7.6154488e+01 </wgt>
<wgt id='1867'> +7.5451958e+01 </wgt>
<wgt id='1868'> +7.5783168e+01 </wgt>
<wgt id='1869'> +7.5319678e+01 </wgt>
<wgt id='1870'> +7.6410863e+01 </wgt>
<wgt id='1871'> +7.5784856e+01 </wgt>
<wgt id='1872'> +7.5953766e+01 </wgt>
<wgt id='1873'> +7.5867768e+01 </wgt>
<wgt id='1874'> +7.5432251e+01 </wgt>
<wgt id='1875'> +7.5948234e+01 </wgt>
<wgt id='1876'> +7.5936801e+01 </wgt>
<wgt id='1877'> +7.5208450e+01 </wgt>
<wgt id='1878'> +7.5982399e+01 </wgt>
<wgt id='1879'> +7.6003100e+01 </wgt>
<wgt id='1880'> +7.5606126e+01 </wgt>
<wgt id='1881'> +7.5524389e+01 </wgt>
<wgt id='1882'> +7.6130796e+01 </wgt>
<wgt id='1883'> +7.5843769e+01 </wgt>
<wgt id='1884'> +7.5412697e+01 </wgt>
<wgt id='1885'> +7.5747186e+01 </wgt>
<wgt id='1886'> +7.5792675e+01 </wgt>
<wgt id='1887'> +7.6206539e+01 </wgt>
<wgt id='1888'> +7.5939778e+01 </wgt>
<wgt id='1889'> +7.5784630e+01 </wgt>
<wgt id='1890'> +7.5924971e+01 </wgt>
<wgt id='1891'> +7.5799182e+01 </wgt>
<wgt id='1892'> +7.6342617e+01 </wgt>
<wgt id='1893'> +7.6417590e+01 </wgt>
<wgt id='1894'> +7.5779035e+01 </wgt>
<wgt id='1895'> +7.5941750e+01 </wgt>
<wgt id='1896'> +7.5408048e+01 </wgt>
<wgt id='1897'> +7.5684070e+01 </wgt>
<wgt id='1898'> +7.6006444e+01 </wgt>
<wgt id='1899'> +7.5933172e+01 </wgt>
<wgt id='1900'> +7.5796423e+01 </wgt>
<wgt id='1901'> +7.5842902e+01 </wgt>
<wgt id='1902'> +7.5581240e+01 </wgt>
<wgt id='1903'> +7.5671716e+01 </wgt>
<wgt id='1904'> +7.5652185e+01 </wgt>
<wgt id='1905'> +7.5902668e+01 </wgt>
<wgt id='1906'> +7.5922215e+01 </wgt>
<wgt id='1907'> +7.5789303e+01 </wgt>
<wgt id='1908'> +7.5686048e+01 </wgt>
<wgt id='1909'> +7.5915725e+01 </wgt>
<wgt id='1910'> +7.5652934e+01 </wgt>
<wgt id='1911'> +7.6016987e+01 </wgt>
<wgt id='1912'> +7.5957906e+01 </wgt>
<wgt id='1913'> +7.5837006e+01 </wgt>
<wgt id='1914'> +7.5922975e+01 </wgt>
<wgt id='1915'> +7.5716627e+01 </wgt>
<wgt id='1916'> +7.6089700e+01 </wgt>
<wgt id='1917'> +7.5687813e+01 </wgt>
<wgt id='1918'> +7.5943647e+01 </wgt>
<wgt id='1919'> +7.5723310e+01 </wgt>
<wgt id='1920'> +7.5665438e+01 </wgt>
<wgt id='1921'> +7.5743437e+01 </wgt>
<wgt id='1922'> +7.5799476e+01 </wgt>
<wgt id='1923'> +7.5887037e+01 </wgt>
<wgt id='1924'> +7.5799383e+01 </wgt>
<wgt id='1925'> +7.5768997e+01 </wgt>
<wgt id='1926'> +7.5973795e+01 </wgt>
<wgt id='1927'> +7.5783721e+01 </wgt>
<wgt id='1928'> +7.5821236e+01 </wgt>
<wgt id='1929'> +7.5755715e+01 </wgt>
<wgt id='1930'> +7.5900141e+01 </wgt>
<wgt id='1931'> +7.5872535e+01 </wgt>
<wgt id='1932'> +7.5901379e+01 </wgt>
<wgt id='1933'> +7.5860611e+01 </wgt>
<wgt id='1934'> +7.5845359e+01 </wgt>
<wgt id='1935'> +7.5958504e+01 </wgt>
<wgt id='1936'> +7.5781002e+01 </wgt>
<wgt id='1937'> +7.5849685e+01 </wgt>
<wgt id='1938'> +7.5786764e+01 </wgt>
<wgt id='1939'> +7.5785942e+01 </wgt>
<wgt id='1940'> +7.5914798e+01 </wgt>
<wgt id='1941'> +7.5913323e+01 </wgt>
<wgt id='1942'> +7.5766973e+01 </wgt>
<wgt id='1943'> +7.5880844e+01 </wgt>
<wgt id='1944'> +7.5823138e+01 </wgt>
<wgt id='1945'> +7.5943967e+01 </wgt>
<wgt id='1946'> +7.5819605e+01 </wgt>
<wgt id='1947'> +7.5779494e+01 </wgt>
<wgt id='1948'> +7.5884691e+01 </wgt>
<wgt id='1949'> +7.5858288e+01 </wgt>
<wgt id='1950'> +7.5848443e+01 </wgt>
<wgt id='1951'> +7.5911804e+01 </wgt>
<wgt id='1952'> +7.5879513e+01 </wgt>
<wgt id='1953'> +7.5880149e+01 </wgt>
<wgt id='1954'> +7.5824458e+01 </wgt>
<wgt id='1955'> +7.5850897e+01 </wgt>
<wgt id='1956'> +7.5855026e+01 </wgt>
<wgt id='1957'> +7.5858130e+01 </wgt>
<wgt id='1958'> +7.5856015e+01 </wgt>
<wgt id='1959'> +7.5856099e+01 </wgt>
<wgt id='1960'> +7.5856990e+01 </wgt>
<wgt id='1961'> +7.5855725e+01 </wgt>
<wgt id='1962'> +7.5858697e+01 </wgt>
</rwgt>
</event>
<event npLO=" -1 " npNLO=" 1 ">
 7      1 +1.5146096e+02 2.99994020e+01 7.54677110e-03 1.15798360e-01
        2 -1    0    0  502    0 +0.0000000000e+00 +0.0000000000e+00 +6.4200431000e+02 6.4200431000e+02 0.0000000000e+00 0.0000e+00 9.0000e+00
       21 -1    0    0  501  502 +0.0000000000e+00 +0.0000000000e+00 -1.9335862000e+01 1.9335862000e+01 0.0000000000e+00 0.0000e+00 9.0000e+00
       23  2    1    2    0    0 -1.5456002000e+01 +6.5859118000e+01 +5.4526415000e+02 5.5704008000e+02 9.1675182000e+01 0.0000e+00 0.0000e+00
       13  1    3    3    0    0 -2.0209805000e+01 -1.8530623000e+01 +1.8321883000e+02 1.8525916000e+02 0.0000000000e+00 0.0000e+00 9.0000e+00
      -13  1    3    3    0    0 +4.7538034000e+00 +8.4389741000e+01 +3.6204533000e+02 3.7178091000e+02 0.0000000000e+00 0.0000e+00 9.0000e+00
       22  1    1    2    0    0 +8.4633171000e+00 -1.3956197000e+01 +2.7381452000e+01 3.1877062000e+01 0.0000000000e+00 0.0000e+00 9.0000e+00
        2  1    1    2  501    0 +6.9926845000e+00 -5.1902921000e+01 +5.0022841000e+01 7.2423031000e+01 0.0000000000e+00 0.0000e+00 9.0000e+00
#aMCatNLO 1  0  0  6  2 0.30442885E+02 0.00000000E+00 -9  7  0 0.00000000E+00 0.00000000E+00 0.00000000E+00 0.00000000E+00 0.00000000E+00
<rwgt>
<wgt id='1001'> +1.5146000e+02 </wgt>
<wgt id='1002'> +1.5146000e+02 </wgt>
<wgt id='1003'> +1.4482000e+02 </wgt>
<wgt id='1004'> +1.5192000e+02 </wgt>
<wgt id='1005'> +1.5339000e+02 </wgt>
<wgt id='1006'> +1.5190000e+02 </wgt>
<wgt id='1007'> +1.4645000e+02 </wgt>
<wgt id='1008'> +1.5212000e+02 </wgt>
<wgt id='1009'> +1.5174000e+02 </wgt>
<wgt id='1010'> +1.4826000e+02 </wgt>
<wgt id='1011'> +1.5072000e+02 </wgt>
<wgt id='1012'> +1.5244000e+02 </wgt>
<wgt id='1013'> +1.5529000e+02 </wgt>
<wgt id='1014'> +1.5291000e+02 </wgt>
<wgt id='1015'> +1.5403000e+02 </wgt>
<wgt id='1016'> +1.5151000e+02 </wgt>
<wgt id='1017'> +1.5200000e+02 </wgt>
<wgt id='1018'> +1.5002000e+02 </wgt>
<wgt id='1019'> +1.4863000e+02 </wgt>
<wgt id='1020'> +1.4616000e+02 </wgt>
<wgt id='1021'> +1.5048000e+02 </wgt>
<wgt id='1022'> +1.4761000e+02 </wgt>
<wgt id='1023'> +1.5403000e+02 </wgt>
<wgt id='1024'> +1.5149000e+02 </wgt>
<wgt id='1025'> +1.5927000e+02 </wgt>
<wgt id='1026'> +1.5121000e+02 </wgt>
<wgt id='1027'> +1.5237000e+02 </wgt>
<wgt id='1028'> +1.4972000e+02 </wgt>
<wgt id='1029'> +1.4698000e+02 </wgt>
<wgt id='1030'> +1.5074000e+02 </wgt>
<wgt id='1031'> +1.4874000e+02 </wgt>
<wgt id='1032'> +1.5206000e+02 </wgt>
<wgt id='1033'> +1.5154000e+02 </wgt>
<wgt id='1034'> +1.5228000e+02 </wgt>
<wgt id='1035'> +1.5165000e+02 </wgt>
<wgt id='1036'> +1.5487000e+02 </wgt>
<wgt id='1037'> +1.5367000e+02 </wgt>
<wgt id='1038'> +1.5181000e+02 </wgt>
<wgt id='1039'> +1.4932000e+02 </wgt>
<wgt id='1040'> +1.5041000e+02 </wgt>
<wgt id='1041'> +1.4887000e+02 </wgt>
<wgt id='1042'> +1.5269000e+02 </wgt>
<wgt id='1043'> +1.5242000e+02 </wgt>
<wgt id='1044'> +1.5435000e+02 </wgt>
<wgt id='1045'> +1.5367000e+02 </wgt>
<wgt id='1046'> +1.5141000e+02 </wgt>
<wgt id='1047'> +1.5339000e+02 </wgt>
<wgt id='1048'> +1.5331000e+02 </wgt>
<wgt id='1049'> +1.4926000e+02 </wgt>
<wgt id='1050'> +1.4958000e+02 </wgt>
<wgt id='1051'> +1.5034000e+02 </wgt>
<wgt id='1052'> +1.5262000e+02 </wgt>
<wgt id='1053'> +1.5252000e+02 </wgt>
<wgt id='1054'> +1.5244000e+02 </wgt>
<wgt id='1055'> +1.5457000e+02 </wgt>
<wgt id='1056'> +1.5261000e+02 </wgt>
<wgt id='1057'> +1.5215000e+02 </wgt>
<wgt id='1058'> +1.4913000e+02 </wgt>
<wgt id='1059'> +1.5322000e+02 </wgt>
<wgt id='1060'> +1.5295000e+02 </wgt>
<wgt id='1061'> +1.5048000e+02 </wgt>
<wgt id='1062'> +1.5119000e+02 </wgt>
<wgt id='1063'> +1.5070000e+02 </wgt>
<wgt id='1064'> +1.5088000e+02 </wgt>
<wgt id='1065'> +1.5541000e+02 </wgt>
<wgt id='1066'> +1.4538000e+02 </wgt>
<wgt id='1067'> +1.5281000e+02 </wgt>
<wgt id='1068'> +1.5157000e+02 </wgt>
<wgt id='1069'> +1.5447000e+02 </wgt>
<wgt id='1070'> +1.5169000e+02 </wgt>
<wgt id='1071'> +1.5064000e+02 </wgt>
<wgt id='1072'> +1.5023000e+02 </wgt>
<wgt id='1073'> +1.5445000e+02 </wgt>
<wgt id='1074'> +1.5221000e+02 </wgt>
<wgt id='1075'> +1.4908000e+02 </wgt>
<wgt id='1076'> +1.5561000e+02 </wgt>
<wgt id='1077'> +1.5070000e+02 </wgt>
<wgt id='1078'> +1.5485000e+02 </wgt>
<wgt id='1079'> +1.5385000e+02 </wgt>
<wgt id='1080'> +1.5499000e+02 </wgt>
<wgt id='1081'> +1.5051000e+02 </wgt>
<wgt id='1082'> +1.5129000e+02 </wgt>
<wgt id='1083'> +1.5448000e+02 </wgt>
<wgt id='1084'> +1.5299000e+02 </wgt>
<wgt id='1085'> +1.4712000e+02 </wgt>
<wgt id='1086'> +1.5107000e+02 </wgt>
<wgt id='1087'> +1.4858000e+02 </wgt>
<wgt id='1088'> +1.4983000e+02 </wgt>
<wgt id='1089'> +1.5331000e+02 </wgt>
<wgt id='1090'> +1.5299000e+02 </wgt>
<wgt id='1091'> +1.4947000e+02 </wgt>
<wgt id='1092'> +1.5137000e+02 </wgt>
<wgt id='1093'> +1.4835000e+02 </wgt>
<wgt id='1094'> +1.5115000e+02 </wgt>
<wgt id='1095'> +1.4854000e+02 </wgt>
<wgt id='1096'> +1.5414000e+02 </wgt>
<wgt id='1097'> +1.4677000e+02 </wgt>
<wgt id='1098'> +1.5231000e+02 </wgt>
<wgt id='1099'> +1.4978000e+02 </wgt>
<wgt id='1100'> +1.5557000e+02 </wgt>
<wgt id='1101'> +1.5139000e+02 </wgt>
<wgt id='1102'> +1.4773000e+02 </wgt>
<wgt id='1103'> +1.5043000e+02 </wgt>
<wgt id='1104'> +1.5185000e+02 </wgt>
<wgt id='1105'> +1.5146096e+02 </wgt>
<wgt id='1106'> +7.6816014e+01 </wgt>
<wgt id='1107'> +7.2119832e+01 </wgt>
<wgt id='1108'> +8.0236023e+01 </wgt>
<wgt id='1109'> +8.1324534e+01 </wgt>
<wgt id='1110'> +7.6503945e+01 </wgt>
<wgt id='1111'> +7.0045992e+01 </wgt>
<wgt id='1112'> +7.1097334e+01 </wgt>
<wgt id='1113'> +6.6634676e+01 </wgt>
<wgt id='1114'> +7.8270131e+01 </wgt>
<wgt id='1115'> +7.7799685e+01 </wgt>
<wgt id='1116'> +7.9434070e+01 </wgt>
<wgt id='1117'> +7.7012411e+01 </wgt>
<wgt id='1118'> +7.6330399e+01 </wgt>
<wgt id='1119'> +7.8243918e+01 </wgt>
<wgt id='1120'> +7.6432938e+01 </wgt>
<wgt id='1121'> +7.9618938e+01 </wgt>
<wgt id='1122'> +7.9374862e+01 </wgt>
<wgt id='1123'> +7.8406054e+01 </wgt>
<wgt id='1124'> +7.5689609e+01 </wgt>
<wgt id='1125'> +7.8016339e+01 </wgt>
<wgt id='1126'> +7.7220362e+01 </wgt>
<wgt id='1127'> +7.8530246e+01 </wgt>
<wgt id='1128'> +7.8883368e+01 </wgt>
<wgt id='1129'> +7.9160409e+01 </wgt>
<wgt id='1130'> +7.8733326e+01 </wgt>
<wgt id='1131'> +7.8347257e+01 </wgt>
<wgt id='1132'> +7.8425508e+01 </wgt>
<wgt id='1133'> +7.9587916e+01 </wgt>
<wgt id='1134'> +7.8566963e+01 </wgt>
<wgt id='1135'> +7.7201788e+01 </wgt>
<wgt id='1136'> +7.9133565e+01 </wgt>
<wgt id='1137'> +7.9435269e+01 </wgt>
<wgt id='1138'> +7.8540274e+01 </wgt>
<wgt id='1139'> +7.9671928e+01 </wgt>
<wgt id='1140'> +8.0796696e+01 </wgt>
<wgt id='1141'> +7.6462334e+01 </wgt>
<wgt id='1142'> +7.8144171e+01 </wgt>
<wgt id='1143'> +7.8484382e+01 </wgt>
<wgt id='1144'> +7.8220189e+01 </wgt>
<wgt id='1145'> +7.8104634e+01 </wgt>
<wgt id='1146'> +7.6760492e+01 </wgt>
<wgt id='1147'> +7.8200427e+01 </wgt>
<wgt id='1148'> +7.7210340e+01 </wgt>
<wgt id='1149'> +7.7422936e+01 </wgt>
<wgt id='1150'> +7.8628160e+01 </wgt>
<wgt id='1151'> +7.9669974e+01 </wgt>
<wgt id='1152'> +7.7888432e+01 </wgt>
<wgt id='1153'> +7.7927952e+01 </wgt>
<wgt id='1154'> +7.8436244e+01 </wgt>
<wgt id='1155'> +7.8797118e+01 </wgt>
<wgt id='1156'> +7.7331388e+01 </wgt>
<wgt id='1157'> +7.7436006e+01 </wgt>
<wgt id='1158'> +7.7114676e+01 </wgt>
<wgt id='1159'> +7.8623606e+01 </wgt>
<wgt id='1160'> +7.8533050e+01 </wgt>
<wgt id='1161'> +7.7797126e+01 </wgt>
<wgt id='1162'> +8.0071215e+01 </wgt>
<wgt id='1163'> +7.9089872e+01 </wgt>
<wgt id='1164'> +7.8058143e+01 </wgt>
<wgt id='1165'> +7.6970376e+01 </wgt>
<wgt id='1166'> +7.8895513e+01 </wgt>
<wgt id='1167'> +7.8166891e+01 </wgt>
<wgt id='1168'> +7.7625532e+01 </wgt>
<wgt id='1169'> +8.0392457e+01 </wgt>
<wgt id='1170'> +7.8165317e+01 </wgt>
<wgt id='1171'> +7.9872414e+01 </wgt>
<wgt id='1172'> +7.9725270e+01 </wgt>
<wgt id='1173'> +7.9270250e+01 </wgt>
<wgt id='1174'> +7.9776431e+01 </wgt>
<wgt id='1175'> +7.6946661e+01 </wgt>
<wgt id='1176'> +7.8620900e+01 </wgt>
<wgt id='1177'> +7.8576287e+01 </wgt>
<wgt id='1178'> +7.8893955e+01 </wgt>
<wgt id='1179'> +7.9078192e+01 </wgt>
<wgt id='1180'> +8.0343434e+01 </wgt>
<wgt id='1181'> +7.7578422e+01 </wgt>
<wgt id='1182'> +7.8727694e+01 </wgt>
<wgt id='1183'> +7.8705159e+01 </wgt>
<wgt id='1184'> +7.6907922e+01 </wgt>
<wgt id='1185'> +7.8206459e+01 </wgt>
<wgt id='1186'> +7.9651985e+01 </wgt>
<wgt id='1187'> +7.7545808e+01 </wgt>
<wgt id='1188'> +7.7792374e+01 </wgt>
<wgt id='1189'> +7.8035319e+01 </wgt>
<wgt id='1190'> +7.8941727e+01 </wgt>
<wgt id='1191'> +7.7258526e+01 </wgt>
<wgt id='1192'> +7.8496641e+01 </wgt>
<wgt id='1193'> +7.8260817e+01 </wgt>
<wgt id='1194'> +7.6885473e+01 </wgt>
<wgt id='1195'> +7.7078874e+01 </wgt>
<wgt id='1196'> +7.8733326e+01 </wgt>
<wgt id='1197'> +7.5010401e+01 </wgt>
<wgt id='1198'> +7.8420852e+01 </wgt>
<wgt id='1199'> +7.8550250e+01 </wgt>
<wgt id='1200'> +7.7281750e+01 </wgt>
<wgt id='1201'> +7.8320667e+01 </wgt>
<wgt id='1202'> +7.6019141e+01 </wgt>
<wgt id='1203'> +7.5557304e+01 </wgt>
<wgt id='1204'> +7.7810914e+01 </wgt>
<wgt id='1205'> +7.8884670e+01 </wgt>
<wgt id='1206'> +7.8547785e+01 </wgt>
<wgt id='1207'> +7.7990584e+01 </wgt>
<wgt id='1208'> +7.8130081e+01 </wgt>
<wgt id='1209'> +7.7821558e+01 </wgt>
<wgt id='1210'> +7.8824872e+01 </wgt>
<wgt id='1211'> +7.7067819e+01 </wgt>
<wgt id='1212'> +7.9343112e+01 </wgt>
<wgt id='1213'> +8.0224355e+01 </wgt>
<wgt id='1214'> +8.0049365e+01 </wgt>
<wgt id='1215'> +7.5982928e+01 </wgt>
<wgt id='1216'> +7.8212585e+01 </wgt>
<wgt id='1217'> +7.8383678e+01 </wgt>
<wgt id='1218'> +7.8021210e+01 </wgt>
<wgt id='1219'> +7.8372540e+01 </wgt>
<wgt id='1220'> +7.8157408e+01 </wgt>
<wgt id='1221'> +7.8313155e+01 </wgt>
<wgt id='1222'> +7.8347351e+01 </wgt>
<wgt id='1223'> +7.8176749e+01 </wgt>
<wgt id='1224'> +7.8102077e+01 </wgt>
<wgt id='1225'> +7.8001869e+01 </wgt>
<wgt id='1226'> +7.8175701e+01 </wgt>
<wgt id='1227'> +7.8363001e+01 </wgt>
<wgt id='1228'> +7.8288228e+01 </wgt>
<wgt id='1229'> +7.7899869e+01 </wgt>
<wgt id='1230'> +7.8343046e+01 </wgt>
<wgt id='1231'> +7.8297118e+01 </wgt>
<wgt id='1232'> +7.8116612e+01 </wgt>
<wgt id='1233'> +7.8259889e+01 </wgt>
<wgt id='1234'> +7.8137808e+01 </wgt>
<wgt id='1235'> +7.8164738e+01 </wgt>
<wgt id='1236'> +7.8048963e+01 </wgt>
<wgt id='1237'> +7.8350937e+01 </wgt>
<wgt id='1238'> +7.8298863e+01 </wgt>
<wgt id='1239'> +7.8432189e+01 </wgt>
<wgt id='1240'> +7.8235547e+01 </wgt>
<wgt id='1241'> +7.7997911e+01 </wgt>
<wgt id='1242'> +7.8179883e+01 </wgt>
<wgt id='1243'> +7.8135529e+01 </wgt>
<wgt id='1244'> +7.8331250e+01 </wgt>
<wgt id='1245'> +7.8515600e+01 </wgt>
<wgt id='1246'> +7.7697917e+01 </wgt>
<wgt id='1247'> +7.7833732e+01 </wgt>
<wgt id='1248'> +7.8355691e+01 </wgt>
<wgt id='1249'> +7.8280611e+01 </wgt>
<wgt id='1250'> +7.8184777e+01 </wgt>
<wgt id='1251'> +7.8313460e+01 </wgt>
<wgt id='1252'> +7.8299227e+01 </wgt>
<wgt id='1253'> +7.8059309e+01 </wgt>
<wgt id='1254'> +7.8265897e+01 </wgt>
<wgt id='1255'> +7.8234557e+01 </wgt>
<wgt id='1256'> +7.8170675e+01 </wgt>
<wgt id='1257'> +7.8272700e+01 </wgt>
<wgt id='1258'> +7.8278952e+01 </wgt>
<wgt id='1259'> +7.8126888e+01 </wgt>
<wgt id='1260'> +7.8244232e+01 </wgt>
<wgt id='1261'> +7.8284121e+01 </wgt>
<wgt id='1262'> +7.8185833e+01 </wgt>
<wgt id='1263'> +7.8207561e+01 </wgt>
<wgt id='1264'> +7.8334143e+01 </wgt>
<wgt id='1265'> +7.8217509e+01 </wgt>
<wgt id='1266'> +7.8150330e+01 </wgt>
<wgt id='1267'> +7.8227688e+01 </wgt>
<wgt id='1268'> +7.8233799e+01 </wgt>
<wgt id='1269'> +7.8082436e+01 </wgt>
<wgt id='1270'> +7.8167965e+01 </wgt>
<wgt id='1271'> +7.8215317e+01 </wgt>
<wgt id='1272'> +7.8098464e+01 </wgt>
<wgt id='1273'> +7.8263056e+01 </wgt>
<wgt id='1274'> +7.8103863e+01 </wgt>
<wgt id='1275'> +7.8242988e+01 </wgt>
<wgt id='1276'> +7.8196376e+01 </wgt>
<wgt id='1277'> +7.8216707e+01 </wgt>
<wgt id='1278'> +7.8120144e+01 </wgt>
<wgt id='1279'> +7.8270593e+01 </wgt>
<wgt id='1280'> +7.8140563e+01 </wgt>
<wgt id='1281'> +7.8293820e+01 </wgt>
<wgt id='1282'> +7.8211958e+01 </wgt>
<wgt id='1283'> +7.8082736e+01 </wgt>
<wgt id='1284'> +7.8306138e+01 </wgt>
<wgt id='1285'> +7.8136018e+01 </wgt>
<wgt id='1286'> +7.8224026e+01 </wgt>
<wgt id='1287'> +7.8185073e+01 </wgt>
<wgt id='1288'> +7.8247057e+01 </wgt>
<wgt id='1289'> +7.8228830e+01 </wgt>
<wgt id='1290'> +7.8297904e+01 </wgt>
<wgt id='1291'> +7.8154026e+01 </wgt>
<wgt id='1292'> +7.8236865e+01 </wgt>
<wgt id='1293'> +7.8216422e+01 </wgt>
<wgt id='1294'> +7.8217598e+01 </wgt>
<wgt id='1295'> +7.8174884e+01 </wgt>
<wgt id='1296'> +7.8220086e+01 </wgt>
<wgt id='1297'> +7.8274375e+01 </wgt>
<wgt id='1298'> +7.8156249e+01 </wgt>
<wgt id='1299'> +7.8230174e+01 </wgt>
<wgt id='1300'> +7.8148398e+01 </wgt>
<wgt id='1301'> +7.8172518e+01 </wgt>
<wgt id='1302'> +7.8224162e+01 </wgt>
<wgt id='1303'> +7.8250273e+01 </wgt>
<wgt id='1304'> +7.8154745e+01 </wgt>
<wgt id='1305'> +7.8156787e+01 </wgt>
<wgt id='1306'> +7.8185396e+01 </wgt>
<wgt id='1307'> +7.8248530e+01 </wgt>
<wgt id='1308'> +7.8208218e+01 </wgt>
<wgt id='1309'> +7.8187099e+01 </wgt>
<wgt id='1310'> +7.8252423e+01 </wgt>
<wgt id='1311'> +7.8236149e+01 </wgt>
<wgt id='1312'> +7.8157952e+01 </wgt>
<wgt id='1313'> +7.8219264e+01 </wgt>
<wgt id='1314'> +7.8242747e+01 </wgt>
<wgt id='1315'> +7.8164067e+01 </wgt>
<wgt id='1316'> +7.8186104e+01 </wgt>
<wgt id='1317'> +7.7700200e+01 </wgt>
<wgt id='1318'> +7.8918950e+01 </wgt>
<wgt id='1319'> +8.2789543e+01 </wgt>
<wgt id='1320'> +7.8525889e+01 </wgt>
<wgt id='1321'> +7.8629042e+01 </wgt>
<wgt id='1322'> +7.8837208e+01 </wgt>
<wgt id='1323'> +7.9140751e+01 </wgt>
<wgt id='1324'> +7.8649588e+01 </wgt>
<wgt id='1325'> +7.8294728e+01 </wgt>
<wgt id='1326'> +7.9087763e+01 </wgt>
<wgt id='1327'> +7.7873374e+01 </wgt>
<wgt id='1328'> +7.9346863e+01 </wgt>
<wgt id='1329'> +7.7215891e+01 </wgt>
<wgt id='1330'> +8.0271152e+01 </wgt>
<wgt id='1331'> +7.9732738e+01 </wgt>
<wgt id='1332'> +7.7903842e+01 </wgt>
<wgt id='1333'> +7.6718284e+01 </wgt>
<wgt id='1334'> +7.9454545e+01 </wgt>
<wgt id='1335'> +7.8478405e+01 </wgt>
<wgt id='1336'> +7.8378574e+01 </wgt>
<wgt id='1337'> +7.8930229e+01 </wgt>
<wgt id='1338'> +7.8051564e+01 </wgt>
<wgt id='1339'> +7.9555089e+01 </wgt>
<wgt id='1340'> +7.7415028e+01 </wgt>
<wgt id='1341'> +7.8462518e+01 </wgt>
<wgt id='1342'> +7.8569846e+01 </wgt>
<wgt id='1343'> +7.8312140e+01 </wgt>
<wgt id='1344'> +7.8778025e+01 </wgt>
<wgt id='1345'> +7.7335564e+01 </wgt>
<wgt id='1346'> +7.9638652e+01 </wgt>
<wgt id='1347'> +7.8364585e+01 </wgt>
<wgt id='1348'> +7.8735957e+01 </wgt>
<wgt id='1349'> +7.7815563e+01 </wgt>
<wgt id='1350'> +7.8771186e+01 </wgt>
<wgt id='1351'> +7.8553366e+01 </wgt>
<wgt id='1352'> +7.8490819e+01 </wgt>
<wgt id='1353'> +7.8910080e+01 </wgt>
<wgt id='1354'> +7.7678691e+01 </wgt>
<wgt id='1355'> +7.9198833e+01 </wgt>
<wgt id='1356'> +7.7879767e+01 </wgt>
<wgt id='1357'> +7.8627705e+01 </wgt>
<wgt id='1358'> +7.8214356e+01 </wgt>
<wgt id='1359'> +7.8040251e+01 </wgt>
<wgt id='1360'> +7.8673104e+01 </wgt>
<wgt id='1361'> +7.9174412e+01 </wgt>
<wgt id='1362'> +7.7896569e+01 </wgt>
<wgt id='1363'> +7.8634763e+01 </wgt>
<wgt id='1364'> +7.8132886e+01 </wgt>
<wgt id='1365'> +7.8409227e+01 </wgt>
<wgt id='1366'> +7.8092845e+01 </wgt>
<wgt id='1367'> +7.8380069e+01 </wgt>
<wgt id='1368'> +7.8899290e+01 </wgt>
<wgt id='1369'> +7.9001913e+01 </wgt>
<wgt id='1370'> +7.7911134e+01 </wgt>
<wgt id='1371'> +7.8579457e+01 </wgt>
<wgt id='1372'> +7.9043820e+01 </wgt>
<wgt id='1373'> +7.7237488e+01 </wgt>
<wgt id='1374'> +7.8298070e+01 </wgt>
<wgt id='1375'> +7.8274260e+01 </wgt>
<wgt id='1376'> +7.8719143e+01 </wgt>
<wgt id='1377'> +7.7865570e+01 </wgt>
<wgt id='1378'> +7.9011807e+01 </wgt>
<wgt id='1379'> +7.6863792e+01 </wgt>
<wgt id='1380'> +7.6490454e+01 </wgt>
<wgt id='1381'> +7.7089218e+01 </wgt>
<wgt id='1382'> +7.7881957e+01 </wgt>
<wgt id='1383'> +7.6526329e+01 </wgt>
<wgt id='1384'> +7.6651610e+01 </wgt>
<wgt id='1385'> +8.3595972e+01 </wgt>
<wgt id='1386'> +8.3709396e+01 </wgt>
<wgt id='1387'> +8.3469027e+01 </wgt>
<wgt id='1388'> +8.3434473e+01 </wgt>
<wgt id='1389'> +8.3875812e+01 </wgt>
<wgt id='1390'> +8.3605105e+01 </wgt>
<wgt id='1391'> +8.3586481e+01 </wgt>
<wgt id='1392'> +8.4102202e+01 </wgt>
<wgt id='1393'> +8.3247622e+01 </wgt>
<wgt id='1394'> +8.3549698e+01 </wgt>
<wgt id='1395'> +8.3652719e+01 </wgt>
<wgt id='1396'> +8.3235301e+01 </wgt>
<wgt id='1397'> +8.3787884e+01 </wgt>
<wgt id='1398'> +8.3280737e+01 </wgt>
<wgt id='1399'> +8.3830114e+01 </wgt>
<wgt id='1400'> +8.3974411e+01 </wgt>
<wgt id='1401'> +8.3299329e+01 </wgt>
<wgt id='1402'> +8.3962953e+01 </wgt>
<wgt id='1403'> +8.3430665e+01 </wgt>
<wgt id='1404'> +8.2247642e+01 </wgt>
<wgt id='1405'> +8.4255047e+01 </wgt>
<wgt id='1406'> +8.3476722e+01 </wgt>
<wgt id='1407'> +8.3812009e+01 </wgt>
<wgt id='1408'> +8.3736352e+01 </wgt>
<wgt id='1409'> +8.3318298e+01 </wgt>
<wgt id='1410'> +8.3702370e+01 </wgt>
<wgt id='1411'> +8.3299728e+01 </wgt>
<wgt id='1412'> +8.4058960e+01 </wgt>
<wgt id='1413'> +8.2940129e+01 </wgt>
<wgt id='1414'> +8.3575304e+01 </wgt>
<wgt id='1415'> +8.3538868e+01 </wgt>
<wgt id='1416'> +8.3774807e+01 </wgt>
<wgt id='1417'> +8.3561995e+01 </wgt>
<wgt id='1418'> +8.3457162e+01 </wgt>
<wgt id='1419'> +8.3870255e+01 </wgt>
<wgt id='1420'> +8.3266190e+01 </wgt>
<wgt id='1421'> +8.3649670e+01 </wgt>
<wgt id='1422'> +8.3715913e+01 </wgt>
<wgt id='1423'> +8.3481315e+01 </wgt>
<wgt id='1424'> +8.3720268e+01 </wgt>
<wgt id='1425'> +8.3241653e+01 </wgt>
<wgt id='1426'> +8.3673239e+01 </wgt>
<wgt id='1427'> +8.3545763e+01 </wgt>
<wgt id='1428'> +8.3662347e+01 </wgt>
<wgt id='1429'> +8.3241200e+01 </wgt>
<wgt id='1430'> +8.3677948e+01 </wgt>
<wgt id='1431'> +8.3589621e+01 </wgt>
<wgt id='1432'> +8.3630650e+01 </wgt>
<wgt id='1433'> +8.3642338e+01 </wgt>
<wgt id='1434'> +8.3770097e+01 </wgt>
<wgt id='1435'> +8.4006227e+01 </wgt>
<wgt id='1436'> +8.2580853e+01 </wgt>
<wgt id='1437'> +8.2580620e+01 </wgt>
<wgt id='1438'> +8.2539026e+01 </wgt>
<wgt id='1439'> +8.2579128e+01 </wgt>
<wgt id='1440'> +8.2684335e+01 </wgt>
<wgt id='1441'> +8.2688033e+01 </wgt>
<wgt id='1442'> +8.2457398e+01 </wgt>
<wgt id='1443'> +8.2733422e+01 </wgt>
<wgt id='1444'> +8.2444738e+01 </wgt>
<wgt id='1445'> +8.2430209e+01 </wgt>
<wgt id='1446'> +8.2694026e+01 </wgt>
<wgt id='1447'> +8.2720046e+01 </wgt>
<wgt id='1448'> +8.2566420e+01 </wgt>
<wgt id='1449'> +8.2748106e+01 </wgt>
<wgt id='1450'> +8.2631888e+01 </wgt>
<wgt id='1451'> +8.2649924e+01 </wgt>
<wgt id='1452'> +8.2330548e+01 </wgt>
<wgt id='1453'> +8.2485761e+01 </wgt>
<wgt id='1454'> +8.2635453e+01 </wgt>
<wgt id='1455'> +8.2375493e+01 </wgt>
<wgt id='1456'> +8.2351697e+01 </wgt>
<wgt id='1457'> +8.2499788e+01 </wgt>
<wgt id='1458'> +8.2352000e+01 </wgt>
<wgt id='1459'> +8.2348504e+01 </wgt>
<wgt id='1460'> +8.2762530e+01 </wgt>
<wgt id='1461'> +8.2880107e+01 </wgt>
<wgt id='1462'> +8.2773944e+01 </wgt>
<wgt id='1463'> +8.2662613e+01 </wgt>
<wgt id='1464'> +8.2965165e+01 </wgt>
<wgt id='1465'> +8.0021674e+01 </wgt>
<wgt id='1466'> +7.6929018e+01 </wgt>
<wgt id='1467'> +7.6644341e+01 </wgt>
<wgt id='1468'> +7.6747647e+01 </wgt>
<wgt id='1469'> +7.7141752e+01 </wgt>
<wgt id='1470'> +7.6833903e+01 </wgt>
<wgt id='1471'> +7.7020878e+01 </wgt>
<wgt id='1472'> +7.6388719e+01 </wgt>
<wgt id='1473'> +7.7714048e+01 </wgt>
<wgt id='1474'> +7.7914160e+01 </wgt>
<wgt id='1475'> +7.6396278e+01 </wgt>
<wgt id='1476'> +7.6794548e+01 </wgt>
<wgt id='1477'> +7.6869424e+01 </wgt>
<wgt id='1478'> +7.6564166e+01 </wgt>
<wgt id='1479'> +7.7408237e+01 </wgt>
<wgt id='1480'> +7.6931628e+01 </wgt>
<wgt id='1481'> +7.6819003e+01 </wgt>
<wgt id='1482'> +7.6920001e+01 </wgt>
<wgt id='1483'> +7.6701214e+01 </wgt>
<wgt id='1484'> +7.7252092e+01 </wgt>
<wgt id='1485'> +7.6766875e+01 </wgt>
<wgt id='1486'> +7.7026001e+01 </wgt>
<wgt id='1487'> +7.6861439e+01 </wgt>
<wgt id='1488'> +7.6560667e+01 </wgt>
<wgt id='1489'> +7.7267062e+01 </wgt>
<wgt id='1490'> +7.6858732e+01 </wgt>
<wgt id='1491'> +7.7133908e+01 </wgt>
<wgt id='1492'> +7.6890451e+01 </wgt>
<wgt id='1493'> +7.6771565e+01 </wgt>
<wgt id='1494'> +7.7145821e+01 </wgt>
<wgt id='1495'> +7.6821372e+01 </wgt>
<wgt id='1496'> +7.6691948e+01 </wgt>
<wgt id='1497'> +7.6963119e+01 </wgt>
<wgt id='1498'> +7.6819032e+01 </wgt>
<wgt id='1499'> +7.6608828e+01 </wgt>
<wgt id='1500'> +7.6981029e+01 </wgt>
<wgt id='1501'> +7.7145726e+01 </wgt>
<wgt id='1502'> +7.6803051e+01 </wgt>
<wgt id='1503'> +7.6770008e+01 </wgt>
<wgt id='1504'> +7.6934614e+01 </wgt>
<wgt id='1505'> +7.7071162e+01 </wgt>
<wgt id='1506'> +7.6973383e+01 </wgt>
<wgt id='1507'> +7.7049234e+01 </wgt>
<wgt id='1508'> +7.6880724e+01 </wgt>
<wgt id='1509'> +7.6870495e+01 </wgt>
<wgt id='1510'> +7.7064647e+01 </wgt>
<wgt id='1511'> +7.6992365e+01 </wgt>
<wgt id='1512'> +7.6867065e+01 </wgt>
<wgt id='1513'> +7.6792656e+01 </wgt>
<wgt id='1514'> +7.6811938e+01 </wgt>
<wgt id='1515'> +7.6924019e+01 </wgt>
<wgt id='1516'> +7.6921505e+01 </wgt>
<wgt id='1517'> +7.6868776e+01 </wgt>
<wgt id='1518'> +7.6918079e+01 </wgt>
<wgt id='1519'> +7.6977378e+01 </wgt>
<wgt id='1520'> +7.6958944e+01 </wgt>
<wgt id='1521'> +7.6890860e+01 </wgt>
<wgt id='1522'> +7.7041051e+01 </wgt>
<wgt id='1523'> +7.6902416e+01 </wgt>
<wgt id='1524'> +7.6989780e+01 </wgt>
<wgt id='1525'> +7.6858075e+01 </wgt>
<wgt id='1526'> +7.6802849e+01 </wgt>
<wgt id='1527'> +7.6849799e+01 </wgt>
<wgt id='1528'> +7.6829892e+01 </wgt>
<wgt id='1529'> +7.6910164e+01 </wgt>
<wgt id='1530'> +7.6876450e+01 </wgt>
<wgt id='1531'> +7.6893721e+01 </wgt>
<wgt id='1532'> +7.6835213e+01 </wgt>
<wgt id='1533'> +7.6883183e+01 </wgt>
<wgt id='1534'> +7.6926576e+01 </wgt>
<wgt id='1535'> +7.6932609e+01 </wgt>
<wgt id='1536'> +7.6930199e+01 </wgt>
<wgt id='1537'> +7.6894030e+01 </wgt>
<wgt id='1538'> +7.6900510e+01 </wgt>
<wgt id='1539'> +7.6919974e+01 </wgt>
<wgt id='1540'> +7.6912837e+01 </wgt>
<wgt id='1541'> +7.6932211e+01 </wgt>
<wgt id='1542'> +7.6910350e+01 </wgt>
<wgt id='1543'> +7.6902776e+01 </wgt>
<wgt id='1544'> +7.6922585e+01 </wgt>
<wgt id='1545'> +7.7005267e+01 </wgt>
<wgt id='1546'> +7.6930398e+01 </wgt>
<wgt id='1547'> +7.6923953e+01 </wgt>
<wgt id='1548'> +7.6872278e+01 </wgt>
<wgt id='1549'> +7.6946169e+01 </wgt>
<wgt id='1550'> +7.6944723e+01 </wgt>
<wgt id='1551'> +7.6949070e+01 </wgt>
<wgt id='1552'> +7.6957442e+01 </wgt>
<wgt id='1553'> +7.6903890e+01 </wgt>
<wgt id='1554'> +7.6887589e+01 </wgt>
<wgt id='1555'> +7.6956052e+01 </wgt>
<wgt id='1556'> +7.6908141e+01 </wgt>
<wgt id='1557'> +7.6932277e+01 </wgt>
<wgt id='1558'> +7.6950859e+01 </wgt>
<wgt id='1559'> +7.6927486e+01 </wgt>
<wgt id='1560'> +7.6945223e+01 </wgt>
<wgt id='1561'> +7.6919190e+01 </wgt>
<wgt id='1562'> +7.6934315e+01 </wgt>
<wgt id='1563'> +7.6913115e+01 </wgt>
<wgt id='1564'> +7.6943975e+01 </wgt>
<wgt id='1565'> +7.6924736e+01 </wgt>
<wgt id='1566'> +7.6931282e+01 </wgt>
<wgt id='1567'> +7.6311836e+01 </wgt>
<wgt id='1568'> +7.7414509e+01 </wgt>
<wgt id='1569'> +7.6522832e+01 </wgt>
<wgt id='1570'> +7.6728336e+01 </wgt>
<wgt id='1571'> +7.6445759e+01 </wgt>
<wgt id='1572'> +7.6456870e+01 </wgt>
<wgt id='1573'> +7.6598638e+01 </wgt>
<wgt id='1574'> +7.6564925e+01 </wgt>
<wgt id='1575'> +7.6623545e+01 </wgt>
<wgt id='1576'> +7.6890856e+01 </wgt>
<wgt id='1577'> +7.6789099e+01 </wgt>
<wgt id='1578'> +7.6521315e+01 </wgt>
<wgt id='1579'> +7.6735805e+01 </wgt>
<wgt id='1580'> +7.6686464e+01 </wgt>
<wgt id='1581'> +7.5743005e+01 </wgt>
<wgt id='1582'> +7.6274480e+01 </wgt>
<wgt id='1583'> +7.6006312e+01 </wgt>
<wgt id='1584'> +7.6392038e+01 </wgt>
<wgt id='1585'> +7.6464947e+01 </wgt>
<wgt id='1586'> +7.6607011e+01 </wgt>
<wgt id='1587'> +7.6558684e+01 </wgt>
<wgt id='1588'> +7.6059861e+01 </wgt>
<wgt id='1589'> +7.6703385e+01 </wgt>
<wgt id='1590'> +7.6705096e+01 </wgt>
<wgt id='1591'> +7.6375255e+01 </wgt>
<wgt id='1592'> +7.6736949e+01 </wgt>
<wgt id='1593'> +7.6883216e+01 </wgt>
<wgt id='1594'> +7.6541484e+01 </wgt>
<wgt id='1595'> +7.6479316e+01 </wgt>
<wgt id='1596'> +7.6538524e+01 </wgt>
<wgt id='1597'> +7.6521677e+01 </wgt>
<wgt id='1598'> +7.6525573e+01 </wgt>
<wgt id='1599'> +7.6629061e+01 </wgt>
<wgt id='1600'> +7.6760014e+01 </wgt>
<wgt id='1601'> +7.6741631e+01 </wgt>
<wgt id='1602'> +7.6945561e+01 </wgt>
<wgt id='1603'> +7.6713361e+01 </wgt>
<wgt id='1604'> +7.6416453e+01 </wgt>
<wgt id='1605'> +7.6604523e+01 </wgt>
<wgt id='1606'> +7.6475315e+01 </wgt>
<wgt id='1607'> +7.6561691e+01 </wgt>
<wgt id='1608'> +7.6516401e+01 </wgt>
<wgt id='1609'> +7.6440745e+01 </wgt>
<wgt id='1610'> +7.6544717e+01 </wgt>
<wgt id='1611'> +7.6589505e+01 </wgt>
<wgt id='1612'> +7.6312652e+01 </wgt>
<wgt id='1613'> +7.6579508e+01 </wgt>
<wgt id='1614'> +7.6390089e+01 </wgt>
<wgt id='1615'> +7.6535411e+01 </wgt>
<wgt id='1616'> +7.6489251e+01 </wgt>
<wgt id='1617'> +7.6702284e+01 </wgt>
<wgt id='1618'> +7.6447176e+01 </wgt>
<wgt id='1619'> +7.6587299e+01 </wgt>
<wgt id='1620'> +7.6526803e+01 </wgt>
<wgt id='1621'> +7.6431588e+01 </wgt>
<wgt id='1622'> +7.6565722e+01 </wgt>
<wgt id='1623'> +7.6494823e+01 </wgt>
<wgt id='1624'> +7.6542731e+01 </wgt>
<wgt id='1625'> +7.6531080e+01 </wgt>
<wgt id='1626'> +7.6470274e+01 </wgt>
<wgt id='1627'> +7.6457036e+01 </wgt>
<wgt id='1628'> +7.6517084e+01 </wgt>
<wgt id='1629'> +7.6451054e+01 </wgt>
<wgt id='1630'> +7.6571254e+01 </wgt>
<wgt id='1631'> +7.6516288e+01 </wgt>
<wgt id='1632'> +7.6543726e+01 </wgt>
<wgt id='1633'> +7.6407866e+01 </wgt>
<wgt id='1634'> +7.6574264e+01 </wgt>
<wgt id='1635'> +7.6564449e+01 </wgt>
<wgt id='1636'> +7.6562270e+01 </wgt>
<wgt id='1637'> +7.6563425e+01 </wgt>
<wgt id='1638'> +7.6566963e+01 </wgt>
<wgt id='1639'> +7.6552321e+01 </wgt>
<wgt id='1640'> +7.6585749e+01 </wgt>
<wgt id='1641'> +7.6548627e+01 </wgt>
<wgt id='1642'> +7.6540397e+01 </wgt>
<wgt id='1643'> +7.6524117e+01 </wgt>
<wgt id='1644'> +7.6499644e+01 </wgt>
<wgt id='1645'> +7.6466356e+01 </wgt>
<wgt id='1646'> +7.6546325e+01 </wgt>
<wgt id='1647'> +7.6509895e+01 </wgt>
<wgt id='1648'> +7.6531583e+01 </wgt>
<wgt id='1649'> +7.6576030e+01 </wgt>
<wgt id='1650'> +7.6515784e+01 </wgt>
<wgt id='1651'> +7.6546390e+01 </wgt>
<wgt id='1652'> +7.6516984e+01 </wgt>
<wgt id='1653'> +7.6522854e+01 </wgt>
<wgt id='1654'> +7.6505070e+01 </wgt>
<wgt id='1655'> +7.6561447e+01 </wgt>
<wgt id='1656'> +7.6476979e+01 </wgt>
<wgt id='1657'> +7.6517311e+01 </wgt>
<wgt id='1658'> +7.6522593e+01 </wgt>
<wgt id='1659'> +7.6556585e+01 </wgt>
<wgt id='1660'> +7.6487426e+01 </wgt>
<wgt id='1661'> +7.6520525e+01 </wgt>
<wgt id='1662'> +7.6499404e+01 </wgt>
<wgt id='1663'> +7.6538794e+01 </wgt>
<wgt id='1664'> +7.6510005e+01 </wgt>
<wgt id='1665'> +7.6495281e+01 </wgt>
<wgt id='1666'> +7.6528884e+01 </wgt>
<wgt id='1667'> +7.6540930e+01 </wgt>
<wgt id='1668'> +7.6522002e+01 </wgt>
<wgt id='1669'> +7.6510647e+01 </wgt>
<wgt id='1670'> +7.5996262e+01 </wgt>
<wgt id='1671'> +7.6759146e+01 </wgt>
<wgt id='1672'> +7.6924206e+01 </wgt>
<wgt id='1673'> +7.6363635e+01 </wgt>
<wgt id='1674'> +7.6650001e+01 </wgt>
<wgt id='1675'> +7.6927380e+01 </wgt>
<wgt id='1676'> +7.8070542e+01 </wgt>
<wgt id='1677'> +7.7578628e+01 </wgt>
<wgt id='1678'> +7.6949610e+01 </wgt>
<wgt id='1679'> +7.6866496e+01 </wgt>
<wgt id='1680'> +7.7040058e+01 </wgt>
<wgt id='1681'> +7.6809621e+01 </wgt>
<wgt id='1682'> +7.6939531e+01 </wgt>
<wgt id='1683'> +7.7042574e+01 </wgt>
<wgt id='1684'> +7.7226120e+01 </wgt>
<wgt id='1685'> +7.6876781e+01 </wgt>
<wgt id='1686'> +7.7014281e+01 </wgt>
<wgt id='1687'> +7.7113505e+01 </wgt>
<wgt id='1688'> +7.7030122e+01 </wgt>
<wgt id='1689'> +7.6226932e+01 </wgt>
<wgt id='1690'> +7.6929545e+01 </wgt>
<wgt id='1691'> +7.7111678e+01 </wgt>
<wgt id='1692'> +7.7152090e+01 </wgt>
<wgt id='1693'> +7.6771906e+01 </wgt>
<wgt id='1694'> +7.6756103e+01 </wgt>
<wgt id='1695'> +7.6966096e+01 </wgt>
<wgt id='1696'> +7.6728545e+01 </wgt>
<wgt id='1697'> +7.7002528e+01 </wgt>
<wgt id='1698'> +7.6737082e+01 </wgt>
<wgt id='1699'> +7.7039646e+01 </wgt>
<wgt id='1700'> +7.6791165e+01 </wgt>
<wgt id='1701'> +7.6974805e+01 </wgt>
<wgt id='1702'> +7.6967295e+01 </wgt>
<wgt id='1703'> +7.6311836e+01 </wgt>
<wgt id='1704'> +7.7414509e+01 </wgt>
<wgt id='1705'> +7.6517677e+01 </wgt>
<wgt id='1706'> +7.6956621e+01 </wgt>
<wgt id='1707'> +7.6357681e+01 </wgt>
<wgt id='1708'> +7.6453489e+01 </wgt>
<wgt id='1709'> +7.6079011e+01 </wgt>
<wgt id='1710'> +7.5748749e+01 </wgt>
<wgt id='1711'> +7.6529177e+01 </wgt>
<wgt id='1712'> +7.6437520e+01 </wgt>
<wgt id='1713'> +7.6398702e+01 </wgt>
<wgt id='1714'> +7.6186510e+01 </wgt>
<wgt id='1715'> +7.7006714e+01 </wgt>
<wgt id='1716'> +7.6340418e+01 </wgt>
<wgt id='1717'> +7.6524007e+01 </wgt>
<wgt id='1718'> +7.6589984e+01 </wgt>
<wgt id='1719'> +7.6450009e+01 </wgt>
<wgt id='1720'> +7.6396140e+01 </wgt>
<wgt id='1721'> +7.6436683e+01 </wgt>
<wgt id='1722'> +7.6377236e+01 </wgt>
<wgt id='1723'> +7.6569043e+01 </wgt>
<wgt id='1724'> +7.6648821e+01 </wgt>
<wgt id='1725'> +7.5957679e+01 </wgt>
<wgt id='1726'> +7.6551889e+01 </wgt>
<wgt id='1727'> +7.6986254e+01 </wgt>
<wgt id='1728'> +7.6479062e+01 </wgt>
<wgt id='1729'> +7.6535143e+01 </wgt>
<wgt id='1730'> +7.6419122e+01 </wgt>
<wgt id='1731'> +7.6657708e+01 </wgt>
<wgt id='1732'> +7.6566712e+01 </wgt>
<wgt id='1733'> +7.6576041e+01 </wgt>
<wgt id='1734'> +7.6583459e+01 </wgt>
<wgt id='1735'> +7.6661109e+01 </wgt>
<wgt id='1736'> +7.5996262e+01 </wgt>
<wgt id='1737'> +7.6759146e+01 </wgt>
<wgt id='1738'> +8.5218197e+01 </wgt>
<wgt id='1739'> +8.5209294e+01 </wgt>
<wgt id='1740'> +8.5226912e+01 </wgt>
<wgt id='1741'> +8.5269696e+01 </wgt>
<wgt id='1742'> +8.5166351e+01 </wgt>
<wgt id='1743'> +8.5179574e+01 </wgt>
<wgt id='1744'> +8.5256078e+01 </wgt>
<wgt id='1745'> +8.5137413e+01 </wgt>
<wgt id='1746'> +8.5298233e+01 </wgt>
<wgt id='1747'> +8.5611183e+01 </wgt>
<wgt id='1748'> +8.4825356e+01 </wgt>
<wgt id='1749'> +8.5287423e+01 </wgt>
<wgt id='1750'> +8.5132401e+01 </wgt>
<wgt id='1751'> +8.4849822e+01 </wgt>
<wgt id='1752'> +8.5584866e+01 </wgt>
<wgt id='1753'> +8.5054185e+01 </wgt>
<wgt id='1754'> +8.5395912e+01 </wgt>
<wgt id='1755'> +8.5092016e+01 </wgt>
<wgt id='1756'> +8.5256298e+01 </wgt>
<wgt id='1757'> +8.5120957e+01 </wgt>
<wgt id='1758'> +8.5339471e+01 </wgt>
<wgt id='1759'> +8.5586233e+01 </wgt>
<wgt id='1760'> +8.4800697e+01 </wgt>
<wgt id='1761'> +8.4700547e+01 </wgt>
<wgt id='1762'> +8.5463693e+01 </wgt>
<wgt id='1763'> +8.5814882e+01 </wgt>
<wgt id='1764'> +8.4703485e+01 </wgt>
<wgt id='1765'> +8.4773716e+01 </wgt>
<wgt id='1766'> +8.5522542e+01 </wgt>
<wgt id='1767'> +8.5218197e+01 </wgt>
<wgt id='1768'> +8.5060761e+01 </wgt>
<wgt id='1769'> +8.5410559e+01 </wgt>
<wgt id='1770'> +8.5027321e+01 </wgt>
<wgt id='1771'> +8.5354269e+01 </wgt>
<wgt id='1772'> +8.5768163e+01 </wgt>
<wgt id='1773'> +8.4706215e+01 </wgt>
<wgt id='1774'> +8.5035233e+01 </wgt>
<wgt id='1775'> +8.5403419e+01 </wgt>
<wgt id='1776'> +8.4885420e+01 </wgt>
<wgt id='1777'> +8.5582163e+01 </wgt>
<wgt id='1778'> +8.5184390e+01 </wgt>
<wgt id='1779'> +8.5588859e+01 </wgt>
<wgt id='1780'> +8.5296488e+01 </wgt>
<wgt id='1781'> +8.3007031e+01 </wgt>
<wgt id='1782'> +8.3020991e+01 </wgt>
<wgt id='1783'> +8.3018896e+01 </wgt>
<wgt id='1784'> +8.3083636e+01 </wgt>
<wgt id='1785'> +8.2956192e+01 </wgt>
<wgt id='1786'> +8.3026112e+01 </wgt>
<wgt id='1787'> +8.3012845e+01 </wgt>
<wgt id='1788'> +8.2928815e+01 </wgt>
<wgt id='1789'> +8.3109903e+01 </wgt>
<wgt id='1790'> +8.3285915e+01 </wgt>
<wgt id='1791'> +8.2752550e+01 </wgt>
<wgt id='1792'> +8.3199456e+01 </wgt>
<wgt id='1793'> +8.2839747e+01 </wgt>
<wgt id='1794'> +8.2631205e+01 </wgt>
<wgt id='1795'> +8.3411418e+01 </wgt>
<wgt id='1796'> +8.2908313e+01 </wgt>
<wgt id='1797'> +8.3198432e+01 </wgt>
<wgt id='1798'> +8.3116824e+01 </wgt>
<wgt id='1799'> +8.2909099e+01 </wgt>
<wgt id='1800'> +8.3103363e+01 </wgt>
<wgt id='1801'> +8.2931966e+01 </wgt>
<wgt id='1802'> +8.2336414e+01 </wgt>
<wgt id='1803'> +8.3646917e+01 </wgt>
<wgt id='1804'> +8.3332158e+01 </wgt>
<wgt id='1805'> +8.2720510e+01 </wgt>
<wgt id='1806'> +8.2653143e+01 </wgt>
<wgt id='1807'> +8.3208855e+01 </wgt>
<wgt id='1808'> +8.2707461e+01 </wgt>
<wgt id='1809'> +8.3150242e+01 </wgt>
<wgt id='1810'> +8.3009875e+01 </wgt>
<wgt id='1811'> +8.2899275e+01 </wgt>
<wgt id='1812'> +8.3031499e+01 </wgt>
<wgt id='1813'> +8.2833683e+01 </wgt>
<wgt id='1814'> +8.3093058e+01 </wgt>
<wgt id='1815'> +8.3332712e+01 </wgt>
<wgt id='1816'> +8.2371565e+01 </wgt>
<wgt id='1817'> +8.2850542e+01 </wgt>
<wgt id='1818'> +8.3405122e+01 </wgt>
<wgt id='1819'> +8.1926160e+01 </wgt>
<wgt id='1820'> +8.3483523e+01 </wgt>
<wgt id='1821'> +8.1962543e+01 </wgt>
<wgt id='1822'> +8.4160785e+01 </wgt>
<wgt id='1823'> +8.1959439e+01 </wgt>
<wgt id='1824'> +7.8049547e+01 </wgt>
<wgt id='1825'> +7.8037725e+01 </wgt>
<wgt id='1826'> +7.8025890e+01 </wgt>
<wgt id='1827'> +7.8014170e+01 </wgt>
<wgt id='1828'> +7.8002250e+01 </wgt>
<wgt id='1829'> +7.7990470e+01 </wgt>
<wgt id='1830'> +7.7978654e+01 </wgt>
<wgt id='1831'> +7.7966871e+01 </wgt>
<wgt id='1832'> +7.7955035e+01 </wgt>
<wgt id='1833'> +7.7943316e+01 </wgt>
<wgt id='1834'> +7.7931443e+01 </wgt>
<wgt id='1835'> +7.7919655e+01 </wgt>
<wgt id='1836'> +7.7907790e+01 </wgt>
<wgt id='1837'> +7.7896121e+01 </wgt>
<wgt id='1838'> +7.7884253e+01 </wgt>
<wgt id='1839'> +7.7872425e+01 </wgt>
<wgt id='1840'> +7.7860624e+01 </wgt>
<wgt id='1841'> +7.7848855e+01 </wgt>
<wgt id='1842'> +7.7837008e+01 </wgt>
<wgt id='1843'> +7.7825294e+01 </wgt>
<wgt id='1844'> +7.7813433e+01 </wgt>
<wgt id='1845'> +7.7801608e+01 </wgt>
<wgt id='1846'> +7.7789797e+01 </wgt>
<wgt id='1847'> +7.7778096e+01 </wgt>
<wgt id='1848'> +7.7766268e+01 </wgt>
<wgt id='1849'> +7.7754466e+01 </wgt>
<wgt id='1850'> +7.7742661e+01 </wgt>
<wgt id='1851'> +7.7730851e+01 </wgt>
<wgt id='1852'> +7.7719088e+01 </wgt>
<wgt id='1853'> +7.7707280e+01 </wgt>
<wgt id='1854'> +7.7695526e+01 </wgt>
<wgt id='1855'> +7.5926209e+01 </wgt>
<wgt id='1856'> +7.6114922e+01 </wgt>
<wgt id='1857'> +7.5844785e+01 </wgt>
<wgt id='1858'> +7.5862839e+01 </wgt>
<wgt id='1859'> +7.5998335e+01 </wgt>
<wgt id='1860'> +7.5968236e+01 </wgt>
<wgt id='1861'> +7.6037420e+01 </wgt>
<wgt id='1862'> +7.6300796e+01 </wgt>
<wgt id='1863'> +7.6190773e+01 </wgt>
<wgt id='1864'> +7.5926930e+01 </wgt>
<wgt id='1865'> +7.6134891e+01 </wgt>
<wgt id='1866'> +7.6104264e+01 </wgt>
<wgt id='1867'> +7.5159735e+01 </wgt>
<wgt id='1868'> +7.5686692e+01 </wgt>
<wgt id='1869'> +7.5411033e+01 </wgt>
<wgt id='1870'> +7.5773728e+01 </wgt>
<wgt id='1871'> +7.5884631e+01 </wgt>
<wgt id='1872'> +7.6002858e+01 </wgt>
<wgt id='1873'> +7.5957894e+01 </wgt>
<wgt id='1874'> +7.5477860e+01 </wgt>
<wgt id='1875'> +7.6117517e+01 </wgt>
<wgt id='1876'> +7.6099321e+01 </wgt>
<wgt id='1877'> +7.5778193e+01 </wgt>
<wgt id='1878'> +7.6141687e+01 </wgt>
<wgt id='1879'> +7.6276183e+01 </wgt>
<wgt id='1880'> +7.5933597e+01 </wgt>
<wgt id='1881'> +7.5872200e+01 </wgt>
<wgt id='1882'> +7.5954393e+01 </wgt>
<wgt id='1883'> +7.5929902e+01 </wgt>
<wgt id='1884'> +7.5923326e+01 </wgt>
<wgt id='1885'> +7.6025479e+01 </wgt>
<wgt id='1886'> +7.6174339e+01 </wgt>
<wgt id='1887'> +7.6138921e+01 </wgt>
<wgt id='1888'> +7.6341254e+01 </wgt>
<wgt id='1889'> +7.6115366e+01 </wgt>
<wgt id='1890'> +7.5817933e+01 </wgt>
<wgt id='1891'> +7.6007792e+01 </wgt>
<wgt id='1892'> +7.5880241e+01 </wgt>
<wgt id='1893'> +7.5963404e+01 </wgt>
<wgt id='1894'> +7.5914907e+01 </wgt>
<wgt id='1895'> +7.5844521e+01 </wgt>
<wgt id='1896'> +7.5944660e+01 </wgt>
<wgt id='1897'> +7.5990114e+01 </wgt>
<wgt id='1898'> +7.5724286e+01 </wgt>
<wgt id='1899'> +7.5981548e+01 </wgt>
<wgt id='1900'> +7.5793563e+01 </wgt>
<wgt id='1901'> +7.5941675e+01 </wgt>
<wgt id='1902'> +7.5890055e+01 </wgt>
<wgt id='1903'> +7.6105819e+01 </wgt>
<wgt id='1904'> +7.5849499e+01 </wgt>
<wgt id='1905'> +7.5991545e+01 </wgt>
<wgt id='1906'> +7.5929756e+01 </wgt>
<wgt id='1907'> +7.5835656e+01 </wgt>
<wgt id='1908'> +7.5969187e+01 </wgt>
<wgt id='1909'> +7.5899816e+01 </wgt>
<wgt id='1910'> +7.5947144e+01 </wgt>
<wgt id='1911'> +7.5930886e+01 </wgt>
<wgt id='1912'> +7.5874298e+01 </wgt>
<wgt id='1913'> +7.5864669e+01 </wgt>
<wgt id='1914'> +7.5922573e+01 </wgt>
<wgt id='1915'> +7.5857201e+01 </wgt>
<wgt id='1916'> +7.5974454e+01 </wgt>
<wgt id='1917'> +7.5918705e+01 </wgt>
<wgt id='1918'> +7.5945165e+01 </wgt>
<wgt id='1919'> +7.5813590e+01 </wgt>
<wgt id='1920'> +7.5976826e+01 </wgt>
<wgt id='1921'> +7.5967028e+01 </wgt>
<wgt id='1922'> +7.5963801e+01 </wgt>
<wgt id='1923'> +7.5966758e+01 </wgt>
<wgt id='1924'> +7.5968125e+01 </wgt>
<wgt id='1925'> +7.5954286e+01 </wgt>
<wgt id='1926'> +7.5989540e+01 </wgt>
<wgt id='1927'> +7.5950926e+01 </wgt>
<wgt id='1928'> +7.5942285e+01 </wgt>
<wgt id='1929'> +7.5927251e+01 </wgt>
<wgt id='1930'> +7.5903528e+01 </wgt>
<wgt id='1931'> +7.5873104e+01 </wgt>
<wgt id='1932'> +7.5949566e+01 </wgt>
<wgt id='1933'> +7.5915112e+01 </wgt>
<wgt id='1934'> +7.5934558e+01 </wgt>
<wgt id='1935'> +7.5976997e+01 </wgt>
<wgt id='1936'> +7.5921443e+01 </wgt>
<wgt id='1937'> +7.5950185e+01 </wgt>
<wgt id='1938'> +7.5920286e+01 </wgt>
<wgt id='1939'> +7.5924921e+01 </wgt>
<wgt id='1940'> +7.5909265e+01 </wgt>
<wgt id='1941'> +7.5967369e+01 </wgt>
<wgt id='1942'> +7.5879604e+01 </wgt>
<wgt id='1943'> +7.5919483e+01 </wgt>
<wgt id='1944'> +7.5924682e+01 </wgt>
<wgt id='1945'> +7.5958772e+01 </wgt>
<wgt id='1946'> +7.5889505e+01 </wgt>
<wgt id='1947'> +7.5922677e+01 </wgt>
<wgt id='1948'> +7.5903292e+01 </wgt>
<wgt id='1949'> +7.5939718e+01 </wgt>
<wgt id='1950'> +7.5913372e+01 </wgt>
<wgt id='1951'> +7.5899912e+01 </wgt>
<wgt id='1952'> +7.5931936e+01 </wgt>
<wgt id='1953'> +7.5943715e+01 </wgt>
<wgt id='1954'> +7.5926400e+01 </wgt>
<wgt id='1955'> +7.5914952e+01 </wgt>
<wgt id='1956'> +7.5925737e+01 </wgt>
<wgt id='1957'> +7.5928783e+01 </wgt>
<wgt id='1958'> +7.5926707e+01 </wgt>
<wgt id='1959'> +7.5926784e+01 </wgt>
<wgt id='1960'> +7.5927659e+01 </wgt>
<wgt id='1961'> +7.5926417e+01 </wgt>
<wgt id='1962'> +7.5929341e+01 </wgt>
</rwgt>
</event>
<event npLO=" -1 " npNLO=" 1 ">
 7      1 +1.5146096e+02 1.91277650e+01 7.54677110e-03 1.27070840e-01
       21 -1    0    0  501  502 +0.0000000000e+00 +0.0000000000e+00 +6.2626006000e+00 6.2626006000e+00 0.0000000000e+00 0.0000e+00 9.0000e+00
        2 -1    0    0  502    0 +0.0000000000e+00 +0.0000000000e+00 -4.9450202000e+02 4.9450202000e+02 0.0000000000e+00 0.0000e+00 9.0000e+00
       23  2    1    2    0    0 +9.1093073000e+00 -1.6819391000e+01 -3.9342733000e+02 4.0404232000e+02 8.9995888000e+01 0.0000e+00 0.0000e+00
       15  1    3    3    0    0 +4.2001619000e+01 -3.1608170000e+01 -2.6297835000e+02 2.6818647000e+02 1.7770000000e+00 0.0000e+00 9.0000e+00
      -15  1    3    3    0    0 -1.8871798000e+01 +4.6607946000e+00 -5.2509066000e+01 5.6019885000e+01 1.7770000000e+00 0.0000e+00 9.0000e+00
       22  1    3    3    0    0 -1.4020514000e+01 +1.0127985000e+01 -7.7939912000e+01 7.9835962000e+01 0.0000000000e+00 0.0000e+00 9.0000e+00
        2  1    1    2  501    0 -9.1093073000e+00 +1.6819391000e+01 -9.4812085000e+01 9.6722298000e+01 0.0000000000e+00 0.0000e+00 9.0000e+00
#aMCatNLO 1  0  0  1  2 0.36839598E+02 0.00000000E+00 -9  7  0 0.00000000E+00 0.00000000E+00 0.00000000E+00 0.00000000E+00 0.00000000E+00
<rwgt>
<wgt id='1001'> +1.5146000e+02 </wgt>
<wgt id='1002'> +1.5146000e+02 </wgt>
<wgt id='1003'> +1.4032000e+02 </wgt>
<wgt id='1004'> +1.3549000e+02 </wgt>
<wgt id='1005'> +1.6689000e+02 </wgt>
<wgt id='1006'> +1.5324000e+02 </wgt>
<wgt id='1007'> +1.5259000e+02 </wgt>
<wgt id='1008'> +1.6229000e+02 </wgt>
<wgt id='1009'> +1.3729000e+02 </wgt>
<wgt id='1010'> +1.4980000e+02 </wgt>
<wgt id='1011'> +1.5417000e+02 </wgt>
<wgt id='1012'> +1.6484000e+02 </wgt>
<wgt id='1013'> +1.4831000e+02 </wgt>
<wgt id='1014'> +1.4973000e+02 </wgt>
<wgt id='1015'> +1.5251000e+02 </wgt>
<wgt id='1016'> +1.7197000e+02 </wgt>
<wgt id='1017'> +1.3927000e+02 </wgt>
<wgt id='1018'> +1.3239000e+02 </wgt>
<wgt id='1019'> +1.5275000e+02 </wgt>
<wgt id='1020'> +1.3900000e+02 </wgt>
<wgt id='1021'> +1.5444000e+02 </wgt>
<wgt id='1022'> +1.4014000e+02 </wgt>
<wgt id='1023'> +1.7213000e+02 </wgt>
<wgt id='1024'> +1.4943000e+02 </wgt>
<wgt id='1025'> +1.4342000e+02 </wgt>
<wgt id='1026'> +1.7146000e+02 </wgt>
<wgt id='1027'> +1.4886000e+02 </wgt>
<wgt id='1028'> +1.5583000e+02 </wgt>
<wgt id='1029'> +1.3052000e+02 </wgt>
<wgt id='1030'> +1.6929000e+02 </wgt>
<wgt id='1031'> +1.5242000e+02 </wgt>
<wgt id='1032'> +1.4623000e+02 </wgt>
<wgt id='1033'> +1.6651000e+02 </wgt>
<wgt id='1034'> +1.5605000e+02 </wgt>
<wgt id='1035'> +1.4188000e+02 </wgt>
<wgt id='1036'> +1.6564000e+02 </wgt>
<wgt id='1037'> +1.4744000e+02 </wgt>
<wgt id='1038'> +1.4537000e+02 </wgt>
<wgt id='1039'> +1.4773000e+02 </wgt>
<wgt id='1040'> +1.3231000e+02 </wgt>
<wgt id='1041'> +1.4791000e+02 </wgt>
<wgt id='1042'> +1.5294000e+02 </wgt>
<wgt id='1043'> +1.5719000e+02 </wgt>
<wgt id='1044'> +1.4551000e+02 </wgt>
<wgt id='1045'> +1.5629000e+02 </wgt>
<wgt id='1046'> +1.6078000e+02 </wgt>
<wgt id='1047'> +1.6618000e+02 </wgt>
<wgt id='1048'> +1.5791000e+02 </wgt>
<wgt id='1049'> +1.5321000e+02 </wgt>
<wgt id='1050'> +1.5814000e+02 </wgt>
<wgt id='1051'> +1.4512000e+02 </wgt>
<wgt id='1052'> +1.5672000e+02 </wgt>
<wgt id='1053'> +1.6223000e+02 </wgt>
<wgt id='1054'> +1.4814000e+02 </wgt>
<wgt id='1055'> +1.5473000e+02 </wgt>
<wgt id='1056'> +1.5307000e+02 </wgt>
<wgt id='1057'> +1.5839000e+02 </wgt>
<wgt id='1058'> +1.6324000e+02 </wgt>
<wgt id='1059'> +1.4088000e+02 </wgt>
<wgt id='1060'> +1.6855000e+02 </wgt>
<wgt id='1061'> +1.4638000e+02 </wgt>
<wgt id='1062'> +1.5300000e+02 </wgt>
<wgt id='1063'> +1.4847000e+02 </wgt>
<wgt id='1064'> +1.5331000e+02 </wgt>
<wgt id='1065'> +1.6451000e+02 </wgt>
<wgt id='1066'> +1.3848000e+02 </wgt>
<wgt id='1067'> +1.5492000e+02 </wgt>
<wgt id='1068'> +1.5621000e+02 </wgt>
<wgt id='1069'> +1.3279000e+02 </wgt>
<wgt id='1070'> +1.6493000e+02 </wgt>
<wgt id='1071'> +1.4618000e+02 </wgt>
<wgt id='1072'> +1.5979000e+02 </wgt>
<wgt id='1073'> +1.4236000e+02 </wgt>
<wgt id='1074'> +1.5530000e+02 </wgt>
<wgt id='1075'> +1.2593000e+02 </wgt>
<wgt id='1076'> +1.7341000e+02 </wgt>
<wgt id='1077'> +1.5026000e+02 </wgt>
<wgt id='1078'> +1.7475000e+02 </wgt>
<wgt id='1079'> +1.5109000e+02 </wgt>
<wgt id='1080'> +1.4016000e+02 </wgt>
<wgt id='1081'> +1.4155000e+02 </wgt>
<wgt id='1082'> +1.4576000e+02 </wgt>
<wgt id='1083'> +1.6123000e+02 </wgt>
<wgt id='1084'> +1.5182000e+02 </wgt>
<wgt id='1085'> +1.4854000e+02 </wgt>
<wgt id='1086'> +1.5555000e+02 </wgt>
<wgt id='1087'> +1.5721000e+02 </wgt>
<wgt id='1088'> +1.5062000e+02 </wgt>
<wgt id='1089'> +1.5883000e+02 </wgt>
<wgt id='1090'> +1.4839000e+02 </wgt>
<wgt id='1091'> +1.4290000e+02 </wgt>
<wgt id='1092'> +1.5589000e+02 </wgt>
<wgt id='1093'> +1.6572000e+02 </wgt>
<wgt id='1094'> +1.3570000e+02 </wgt>
<wgt id='1095'> +1.4713000e+02 </wgt>
<wgt id='1096'> +1.4506000e+02 </wgt>
<wgt id='1097'> +1.5520000e+02 </wgt>
<wgt id='1098'> +1.4447000e+02 </wgt>
<wgt id='1099'> +1.3995000e+02 </wgt>
<wgt id='1100'> +1.4650000e+02 </wgt>
<wgt id='1101'> +1.4293000e+02 </wgt>
<wgt id='1102'> +1.2900000e+02 </wgt>
<wgt id='1103'> +1.7110000e+02 </wgt>
<wgt id='1104'> +1.3608000e+02 </wgt>
<wgt id='1105'> +1.5146096e+02 </wgt>
<wgt id='1106'> +2.4962321e+02 </wgt>
<wgt id='1107'> -2.3279573e+02 </wgt>
<wgt id='1108'> -1.0641180e+03 </wgt>
<wgt id='1109'> -6.0707397e+02 </wgt>
<wgt id='1110'> -1.8109188e+03 </wgt>
<wgt id='1111'> +1.0152969e+03 </wgt>
<wgt id='1112'> +9.4815885e+02 </wgt>
<wgt id='1113'> +1.0814084e+03 </wgt>
<wgt id='1114'> +7.1089477e+01 </wgt>
<wgt id='1115'> +7.2713766e+01 </wgt>
<wgt id='1116'> +7.8108505e+01 </wgt>
<wgt id='1117'> +6.7939110e+01 </wgt>
<wgt id='1118'> +6.9695039e+01 </wgt>
<wgt id='1119'> +5.9548972e+01 </wgt>
<wgt id='1120'> +6.7378116e+01 </wgt>
<wgt id='1121'> +7.8903328e+01 </wgt>
<wgt id='1122'> +7.4850507e+01 </wgt>
<wgt id='1123'> +7.1568796e+01 </wgt>
<wgt id='1124'> +6.4590564e+01 </wgt>
<wgt id='1125'> +6.7697514e+01 </wgt>
<wgt id='1126'> +6.8742209e+01 </wgt>
<wgt id='1127'> +7.2790911e+01 </wgt>
<wgt id='1128'> +7.6603051e+01 </wgt>
<wgt id='1129'> +7.1459464e+01 </wgt>
<wgt id='1130'> +6.9511147e+01 </wgt>
<wgt id='1131'> +6.4651622e+01 </wgt>
<wgt id='1132'> +6.7571657e+01 </wgt>
<wgt id='1133'> +7.3304569e+01 </wgt>
<wgt id='1134'> +6.7447418e+01 </wgt>
<wgt id='1135'> +7.6040756e+01 </wgt>
<wgt id='1136'> +7.6686121e+01 </wgt>
<wgt id='1137'> +7.8979609e+01 </wgt>
<wgt id='1138'> +6.5716023e+01 </wgt>
<wgt id='1139'> +7.0323895e+01 </wgt>
<wgt id='1140'> +6.7922288e+01 </wgt>
<wgt id='1141'> +7.3970615e+01 </wgt>
<wgt id='1142'> +7.4163356e+01 </wgt>
<wgt id='1143'> +6.5072302e+01 </wgt>
<wgt id='1144'> +7.5762126e+01 </wgt>
<wgt id='1145'> +7.6424623e+01 </wgt>
<wgt id='1146'> +7.2246613e+01 </wgt>
<wgt id='1147'> +6.9080669e+01 </wgt>
<wgt id='1148'> +7.1729841e+01 </wgt>
<wgt id='1149'> +5.6208070e+01 </wgt>
<wgt id='1150'> +6.7079670e+01 </wgt>
<wgt id='1151'> +6.0907586e+01 </wgt>
<wgt id='1152'> +6.2089937e+01 </wgt>
<wgt id='1153'> +7.7358692e+01 </wgt>
<wgt id='1154'> +7.9019134e+01 </wgt>
<wgt id='1155'> +6.3696746e+01 </wgt>
<wgt id='1156'> +8.2596504e+01 </wgt>
<wgt id='1157'> +6.8631505e+01 </wgt>
<wgt id='1158'> +7.2947963e+01 </wgt>
<wgt id='1159'> +6.9825823e+01 </wgt>
<wgt id='1160'> +6.9270146e+01 </wgt>
<wgt id='1161'> +7.6838925e+01 </wgt>
<wgt id='1162'> +8.3541648e+01 </wgt>
<wgt id='1163'> +7.6243314e+01 </wgt>
<wgt id='1164'> +6.8738306e+01 </wgt>
<wgt id='1165'> +7.2984311e+01 </wgt>
<wgt id='1166'> +7.5475809e+01 </wgt>
<wgt id='1167'> +6.8854364e+01 </wgt>
<wgt id='1168'> +7.7486423e+01 </wgt>
<wgt id='1169'> +6.8552604e+01 </wgt>
<wgt id='1170'> +7.1230150e+01 </wgt>
<wgt id='1171'> +7.4898080e+01 </wgt>
<wgt id='1172'> +6.9403155e+01 </wgt>
<wgt id='1173'> +5.6022325e+01 </wgt>
<wgt id='1174'> +7.2784637e+01 </wgt>
<wgt id='1175'> +8.3866400e+01 </wgt>
<wgt id='1176'> +6.8896979e+01 </wgt>
<wgt id='1177'> +5.6042832e+01 </wgt>
<wgt id='1178'> +7.2958566e+01 </wgt>
<wgt id='1179'> +6.5390793e+01 </wgt>
<wgt id='1180'> +6.9077021e+01 </wgt>
<wgt id='1181'> +8.3182012e+01 </wgt>
<wgt id='1182'> +7.5032176e+01 </wgt>
<wgt id='1183'> +7.6164704e+01 </wgt>
<wgt id='1184'> +8.8184774e+01 </wgt>
<wgt id='1185'> +6.7931165e+01 </wgt>
<wgt id='1186'> +7.2858273e+01 </wgt>
<wgt id='1187'> +6.9600913e+01 </wgt>
<wgt id='1188'> +6.8162025e+01 </wgt>
<wgt id='1189'> +6.6239978e+01 </wgt>
<wgt id='1190'> +6.3125055e+01 </wgt>
<wgt id='1191'> +7.9515991e+01 </wgt>
<wgt id='1192'> +7.4241019e+01 </wgt>
<wgt id='1193'> +6.5342758e+01 </wgt>
<wgt id='1194'> +6.7229360e+01 </wgt>
<wgt id='1195'> +8.1695720e+01 </wgt>
<wgt id='1196'> +6.9511147e+01 </wgt>
<wgt id='1197'> +7.2781384e+01 </wgt>
<wgt id='1198'> +6.9893466e+01 </wgt>
<wgt id='1199'> +7.1585614e+01 </wgt>
<wgt id='1200'> +8.2074172e+01 </wgt>
<wgt id='1201'> +6.1779640e+01 </wgt>
<wgt id='1202'> +6.9662788e+01 </wgt>
<wgt id='1203'> +6.1885056e+01 </wgt>
<wgt id='1204'> +7.0479160e+01 </wgt>
<wgt id='1205'> +6.5654904e+01 </wgt>
<wgt id='1206'> +6.2776209e+01 </wgt>
<wgt id='1207'> +6.8746834e+01 </wgt>
<wgt id='1208'> +7.4877737e+01 </wgt>
<wgt id='1209'> +7.7202110e+01 </wgt>
<wgt id='1210'> +7.4716810e+01 </wgt>
<wgt id='1211'> +7.4492687e+01 </wgt>
<wgt id='1212'> +6.2169455e+01 </wgt>
<wgt id='1213'> +7.5487603e+01 </wgt>
<wgt id='1214'> +6.7028149e+01 </wgt>
<wgt id='1215'> +6.9295439e+01 </wgt>
<wgt id='1216'> +8.0053449e+01 </wgt>
<wgt id='1217'> +7.8628284e+01 </wgt>
<wgt id='1218'> +8.2242838e+01 </wgt>
<wgt id='1219'> +7.7372740e+01 </wgt>
<wgt id='1220'> +7.9420792e+01 </wgt>
<wgt id='1221'> +7.7039553e+01 </wgt>
<wgt id='1222'> +7.8548112e+01 </wgt>
<wgt id='1223'> +7.7659402e+01 </wgt>
<wgt id='1224'> +8.0769457e+01 </wgt>
<wgt id='1225'> +7.9102968e+01 </wgt>
<wgt id='1226'> +7.9917071e+01 </wgt>
<wgt id='1227'> +7.9424311e+01 </wgt>
<wgt id='1228'> +7.9004655e+01 </wgt>
<wgt id='1229'> +8.1710197e+01 </wgt>
<wgt id='1230'> +8.0066381e+01 </wgt>
<wgt id='1231'> +7.8627546e+01 </wgt>
<wgt id='1232'> +8.0324873e+01 </wgt>
<wgt id='1233'> +8.0155535e+01 </wgt>
<wgt id='1234'> +8.0423633e+01 </wgt>
<wgt id='1235'> +7.9203047e+01 </wgt>
<wgt id='1236'> +7.9782312e+01 </wgt>
<wgt id='1237'> +7.9883024e+01 </wgt>
<wgt id='1238'> +8.0088833e+01 </wgt>
<wgt id='1239'> +8.0537054e+01 </wgt>
<wgt id='1240'> +8.0322757e+01 </wgt>
<wgt id='1241'> +7.9977919e+01 </wgt>
<wgt id='1242'> +7.9674232e+01 </wgt>
<wgt id='1243'> +8.0006842e+01 </wgt>
<wgt id='1244'> +8.0468035e+01 </wgt>
<wgt id='1245'> +8.0320714e+01 </wgt>
<wgt id='1246'> +7.9821014e+01 </wgt>
<wgt id='1247'> +7.9622117e+01 </wgt>
<wgt id='1248'> +8.0235020e+01 </wgt>
<wgt id='1249'> +8.0192872e+01 </wgt>
<wgt id='1250'> +7.9997838e+01 </wgt>
<wgt id='1251'> +8.0093806e+01 </wgt>
<wgt id='1252'> +8.0135429e+01 </wgt>
<wgt id='1253'> +7.9962497e+01 </wgt>
<wgt id='1254'> +8.0105014e+01 </wgt>
<wgt id='1255'> +8.0008953e+01 </wgt>
<wgt id='1256'> +8.0081525e+01 </wgt>
<wgt id='1257'> +8.0110904e+01 </wgt>
<wgt id='1258'> +8.0174849e+01 </wgt>
<wgt id='1259'> +8.0006071e+01 </wgt>
<wgt id='1260'> +8.0068326e+01 </wgt>
<wgt id='1261'> +8.0095767e+01 </wgt>
<wgt id='1262'> +7.9999285e+01 </wgt>
<wgt id='1263'> +8.0045127e+01 </wgt>
<wgt id='1264'> +8.0160346e+01 </wgt>
<wgt id='1265'> +8.0139386e+01 </wgt>
<wgt id='1266'> +8.0005364e+01 </wgt>
<wgt id='1267'> +8.0030887e+01 </wgt>
<wgt id='1268'> +8.0071033e+01 </wgt>
<wgt id='1269'> +7.9912881e+01 </wgt>
<wgt id='1270'> +8.0032135e+01 </wgt>
<wgt id='1271'> +8.0082594e+01 </wgt>
<wgt id='1272'> +7.9937960e+01 </wgt>
<wgt id='1273'> +8.0067792e+01 </wgt>
<wgt id='1274'> +7.9898316e+01 </wgt>
<wgt id='1275'> +8.0078033e+01 </wgt>
<wgt id='1276'> +8.0069001e+01 </wgt>
<wgt id='1277'> +8.0098139e+01 </wgt>
<wgt id='1278'> +7.9956098e+01 </wgt>
<wgt id='1279'> +8.0116249e+01 </wgt>
<wgt id='1280'> +7.9992084e+01 </wgt>
<wgt id='1281'> +8.0166458e+01 </wgt>
<wgt id='1282'> +8.0050330e+01 </wgt>
<wgt id='1283'> +7.9929463e+01 </wgt>
<wgt id='1284'> +8.0148852e+01 </wgt>
<wgt id='1285'> +7.9950130e+01 </wgt>
<wgt id='1286'> +8.0096421e+01 </wgt>
<wgt id='1287'> +8.0043555e+01 </wgt>
<wgt id='1288'> +8.0145898e+01 </wgt>
<wgt id='1289'> +8.0099371e+01 </wgt>
<wgt id='1290'> +8.0064552e+01 </wgt>
<wgt id='1291'> +7.9953613e+01 </wgt>
<wgt id='1292'> +8.0095232e+01 </wgt>
<wgt id='1293'> +8.0120524e+01 </wgt>
<wgt id='1294'> +8.0035764e+01 </wgt>
<wgt id='1295'> +8.0021590e+01 </wgt>
<wgt id='1296'> +8.0040367e+01 </wgt>
<wgt id='1297'> +8.0080375e+01 </wgt>
<wgt id='1298'> +7.9984646e+01 </wgt>
<wgt id='1299'> +8.0059140e+01 </wgt>
<wgt id='1300'> +8.0008428e+01 </wgt>
<wgt id='1301'> +8.0020092e+01 </wgt>
<wgt id='1302'> +8.0041377e+01 </wgt>
<wgt id='1303'> +8.0069334e+01 </wgt>
<wgt id='1304'> +7.9988122e+01 </wgt>
<wgt id='1305'> +7.9966927e+01 </wgt>
<wgt id='1306'> +8.0000170e+01 </wgt>
<wgt id='1307'> +8.0065389e+01 </wgt>
<wgt id='1308'> +8.0016969e+01 </wgt>
<wgt id='1309'> +8.0053758e+01 </wgt>
<wgt id='1310'> +8.0109751e+01 </wgt>
<wgt id='1311'> +8.0069476e+01 </wgt>
<wgt id='1312'> +8.0018642e+01 </wgt>
<wgt id='1313'> +8.0076608e+01 </wgt>
<wgt id='1314'> +8.0075085e+01 </wgt>
<wgt id='1315'> +8.0018678e+01 </wgt>
<wgt id='1316'> +8.0011666e+01 </wgt>
<wgt id='1317'> +9.9551582e+01 </wgt>
<wgt id='1318'> +5.9688052e+01 </wgt>
<wgt id='1319'> +1.7745336e+02 </wgt>
<wgt id='1320'> +9.0456775e+01 </wgt>
<wgt id='1321'> +9.0406630e+01 </wgt>
<wgt id='1322'> +9.1310498e+01 </wgt>
<wgt id='1323'> +8.6936283e+01 </wgt>
<wgt id='1324'> +9.7257572e+01 </wgt>
<wgt id='1325'> +9.1308200e+01 </wgt>
<wgt id='1326'> +9.0385123e+01 </wgt>
<wgt id='1327'> +8.4926656e+01 </wgt>
<wgt id='1328'> +9.7466928e+01 </wgt>
<wgt id='1329'> +8.9225539e+01 </wgt>
<wgt id='1330'> +9.1716995e+01 </wgt>
<wgt id='1331'> +8.8007673e+01 </wgt>
<wgt id='1332'> +9.2791187e+01 </wgt>
<wgt id='1333'> +8.6956520e+01 </wgt>
<wgt id='1334'> +9.2066000e+01 </wgt>
<wgt id='1335'> +8.9436232e+01 </wgt>
<wgt id='1336'> +9.0926010e+01 </wgt>
<wgt id='1337'> +9.1701284e+01 </wgt>
<wgt id='1338'> +8.9035165e+01 </wgt>
<wgt id='1339'> +8.9776050e+01 </wgt>
<wgt id='1340'> +9.1059769e+01 </wgt>
<wgt id='1341'> +8.9284011e+01 </wgt>
<wgt id='1342'> +9.2625974e+01 </wgt>
<wgt id='1343'> +9.1083780e+01 </wgt>
<wgt id='1344'> +8.9785095e+01 </wgt>
<wgt id='1345'> +8.5122807e+01 </wgt>
<wgt id='1346'> +9.5733583e+01 </wgt>
<wgt id='1347'> +9.0048925e+01 </wgt>
<wgt id='1348'> +9.0980667e+01 </wgt>
<wgt id='1349'> +8.9625216e+01 </wgt>
<wgt id='1350'> +9.0727415e+01 </wgt>
<wgt id='1351'> +8.9787442e+01 </wgt>
<wgt id='1352'> +9.1338302e+01 </wgt>
<wgt id='1353'> +9.2386102e+01 </wgt>
<wgt id='1354'> +8.6428968e+01 </wgt>
<wgt id='1355'> +9.3487304e+01 </wgt>
<wgt id='1356'> +8.7525882e+01 </wgt>
<wgt id='1357'> +8.9981712e+01 </wgt>
<wgt id='1358'> +9.0733066e+01 </wgt>
<wgt id='1359'> +8.9119464e+01 </wgt>
<wgt id='1360'> +9.1068346e+01 </wgt>
<wgt id='1361'> +9.1451975e+01 </wgt>
<wgt id='1362'> +8.9368232e+01 </wgt>
<wgt id='1363'> +8.8289631e+01 </wgt>
<wgt id='1364'> +9.0878684e+01 </wgt>
<wgt id='1365'> +9.0192868e+01 </wgt>
<wgt id='1366'> +8.9803806e+01 </wgt>
<wgt id='1367'> +9.3806158e+01 </wgt>
<wgt id='1368'> +9.0202113e+01 </wgt>
<wgt id='1369'> +9.0629425e+01 </wgt>
<wgt id='1370'> +9.5737706e+01 </wgt>
<wgt id='1371'> +8.9804552e+01 </wgt>
<wgt id='1372'> +9.1218596e+01 </wgt>
<wgt id='1373'> +9.4326033e+01 </wgt>
<wgt id='1374'> +7.9192532e+01 </wgt>
<wgt id='1375'> +9.1444672e+01 </wgt>
<wgt id='1376'> +8.9595965e+01 </wgt>
<wgt id='1377'> +1.0740793e+02 </wgt>
<wgt id='1378'> +7.2623577e+01 </wgt>
<wgt id='1379'> +7.3943262e+01 </wgt>
<wgt id='1380'> +9.2186243e+01 </wgt>
<wgt id='1381'> +5.5212474e+01 </wgt>
<wgt id='1382'> +1.7774749e+02 </wgt>
<wgt id='1383'> +8.1537545e+01 </wgt>
<wgt id='1384'> +6.8482979e+01 </wgt>
<wgt id='1385'> +3.8863892e+01 </wgt>
<wgt id='1386'> +3.8224330e+01 </wgt>
<wgt id='1387'> +3.9631935e+01 </wgt>
<wgt id='1388'> +3.9447451e+01 </wgt>
<wgt id='1389'> +3.7962968e+01 </wgt>
<wgt id='1390'> +3.9973252e+01 </wgt>
<wgt id='1391'> +3.7667209e+01 </wgt>
<wgt id='1392'> +4.2542375e+01 </wgt>
<wgt id='1393'> +3.6385284e+01 </wgt>
<wgt id='1394'> +3.8107539e+01 </wgt>
<wgt id='1395'> +3.9842428e+01 </wgt>
<wgt id='1396'> +3.9175531e+01 </wgt>
<wgt id='1397'> +3.8734474e+01 </wgt>
<wgt id='1398'> +3.8742293e+01 </wgt>
<wgt id='1399'> +3.9002515e+01 </wgt>
<wgt id='1400'> +3.9190554e+01 </wgt>
<wgt id='1401'> +3.8667187e+01 </wgt>
<wgt id='1402'> +3.9197233e+01 </wgt>
<wgt id='1403'> +3.8740668e+01 </wgt>
<wgt id='1404'> +3.7824259e+01 </wgt>
<wgt id='1405'> +3.9420372e+01 </wgt>
<wgt id='1406'> +3.8827805e+01 </wgt>
<wgt id='1407'> +3.8994597e+01 </wgt>
<wgt id='1408'> +3.8921270e+01 </wgt>
<wgt id='1409'> +3.8857402e+01 </wgt>
<wgt id='1410'> +3.9170951e+01 </wgt>
<wgt id='1411'> +3.8188833e+01 </wgt>
<wgt id='1412'> +3.8463228e+01 </wgt>
<wgt id='1413'> +3.8323657e+01 </wgt>
<wgt id='1414'> +3.8787066e+01 </wgt>
<wgt id='1415'> +3.8941979e+01 </wgt>
<wgt id='1416'> +3.8902681e+01 </wgt>
<wgt id='1417'> +3.8898102e+01 </wgt>
<wgt id='1418'> +3.8782803e+01 </wgt>
<wgt id='1419'> +3.8929086e+01 </wgt>
<wgt id='1420'> +3.8492441e+01 </wgt>
<wgt id='1421'> +3.8943506e+01 </wgt>
<wgt id='1422'> +3.8997760e+01 </wgt>
<wgt id='1423'> +3.8779930e+01 </wgt>
<wgt id='1424'> +3.9046537e+01 </wgt>
<wgt id='1425'> +3.7105536e+01 </wgt>
<wgt id='1426'> +3.8832594e+01 </wgt>
<wgt id='1427'> +3.9008146e+01 </wgt>
<wgt id='1428'> +3.9847171e+01 </wgt>
<wgt id='1429'> +3.6515772e+01 </wgt>
<wgt id='1430'> +3.8808803e+01 </wgt>
<wgt id='1431'> +3.9028829e+01 </wgt>
<wgt id='1432'> +3.8819939e+01 </wgt>
<wgt id='1433'> +3.8984554e+01 </wgt>
<wgt id='1434'> +3.9046657e+01 </wgt>
<wgt id='1435'> +3.8962708e+01 </wgt>
<wgt id='1436'> +2.2218989e+02 </wgt>
<wgt id='1437'> +2.2218523e+02 </wgt>
<wgt id='1438'> +2.2206868e+02 </wgt>
<wgt id='1439'> +2.2218284e+02 </wgt>
<wgt id='1440'> +2.2257836e+02 </wgt>
<wgt id='1441'> +2.2240316e+02 </wgt>
<wgt id='1442'> +2.2218645e+02 </wgt>
<wgt id='1443'> +2.2269162e+02 </wgt>
<wgt id='1444'> +2.2360396e+02 </wgt>
<wgt id='1445'> +2.2544309e+02 </wgt>
<wgt id='1446'> +2.2129264e+02 </wgt>
<wgt id='1447'> +2.2272542e+02 </wgt>
<wgt id='1448'> +2.2280417e+02 </wgt>
<wgt id='1449'> +2.2381671e+02 </wgt>
<wgt id='1450'> +2.2250993e+02 </wgt>
<wgt id='1451'> +2.2170415e+02 </wgt>
<wgt id='1452'> +2.2323946e+02 </wgt>
<wgt id='1453'> +2.2096592e+02 </wgt>
<wgt id='1454'> +2.2141660e+02 </wgt>
<wgt id='1455'> +2.2240168e+02 </wgt>
<wgt id='1456'> +2.2074093e+02 </wgt>
<wgt id='1457'> +2.2066931e+02 </wgt>
<wgt id='1458'> +2.1849700e+02 </wgt>
<wgt id='1459'> +2.1958106e+02 </wgt>
<wgt id='1460'> +2.2262329e+02 </wgt>
<wgt id='1461'> +2.2138014e+02 </wgt>
<wgt id='1462'> +2.2420782e+02 </wgt>
<wgt id='1463'> +2.2217972e+02 </wgt>
<wgt id='1464'> +2.2780999e+02 </wgt>
<wgt id='1465'> +7.7552544e+01 </wgt>
<wgt id='1466'> +8.2958801e+01 </wgt>
<wgt id='1467'> +8.3990951e+01 </wgt>
<wgt id='1468'> +7.7421784e+01 </wgt>
<wgt id='1469'> +8.3309937e+01 </wgt>
<wgt id='1470'> +8.4317418e+01 </wgt>
<wgt id='1471'> +8.5694571e+01 </wgt>
<wgt id='1472'> +8.0871562e+01 </wgt>
<wgt id='1473'> +8.6447092e+01 </wgt>
<wgt id='1474'> +8.5209937e+01 </wgt>
<wgt id='1475'> +8.2307790e+01 </wgt>
<wgt id='1476'> +8.0808857e+01 </wgt>
<wgt id='1477'> +8.2701898e+01 </wgt>
<wgt id='1478'> +8.3165757e+01 </wgt>
<wgt id='1479'> +8.3471640e+01 </wgt>
<wgt id='1480'> +8.3660487e+01 </wgt>
<wgt id='1481'> +8.2088228e+01 </wgt>
<wgt id='1482'> +8.3848279e+01 </wgt>
<wgt id='1483'> +8.3170395e+01 </wgt>
<wgt id='1484'> +8.3061797e+01 </wgt>
<wgt id='1485'> +8.3090615e+01 </wgt>
<wgt id='1486'> +8.3476516e+01 </wgt>
<wgt id='1487'> +8.1947673e+01 </wgt>
<wgt id='1488'> +8.2237184e+01 </wgt>
<wgt id='1489'> +8.3395640e+01 </wgt>
<wgt id='1490'> +8.2826412e+01 </wgt>
<wgt id='1491'> +8.2377274e+01 </wgt>
<wgt id='1492'> +8.2432028e+01 </wgt>
<wgt id='1493'> +8.2898548e+01 </wgt>
<wgt id='1494'> +8.2725788e+01 </wgt>
<wgt id='1495'> +8.2670314e+01 </wgt>
<wgt id='1496'> +8.2372000e+01 </wgt>
<wgt id='1497'> +8.2983613e+01 </wgt>
<wgt id='1498'> +8.2902793e+01 </wgt>
<wgt id='1499'> +8.2390173e+01 </wgt>
<wgt id='1500'> +8.2691619e+01 </wgt>
<wgt id='1501'> +8.3329028e+01 </wgt>
<wgt id='1502'> +8.2795915e+01 </wgt>
<wgt id='1503'> +8.2763475e+01 </wgt>
<wgt id='1504'> +8.2874838e+01 </wgt>
<wgt id='1505'> +8.2920116e+01 </wgt>
<wgt id='1506'> +8.2763449e+01 </wgt>
<wgt id='1507'> +8.3020571e+01 </wgt>
<wgt id='1508'> +8.2855652e+01 </wgt>
<wgt id='1509'> +8.2977681e+01 </wgt>
<wgt id='1510'> +8.2877287e+01 </wgt>
<wgt id='1511'> +8.3063935e+01 </wgt>
<wgt id='1512'> +8.2985620e+01 </wgt>
<wgt id='1513'> +8.2797977e+01 </wgt>
<wgt id='1514'> +8.2659295e+01 </wgt>
<wgt id='1515'> +8.2847872e+01 </wgt>
<wgt id='1516'> +8.3199263e+01 </wgt>
<wgt id='1517'> +8.2813719e+01 </wgt>
<wgt id='1518'> +8.3194786e+01 </wgt>
<wgt id='1519'> +8.3287852e+01 </wgt>
<wgt id='1520'> +8.3087789e+01 </wgt>
<wgt id='1521'> +8.2907959e+01 </wgt>
<wgt id='1522'> +8.3154325e+01 </wgt>
<wgt id='1523'> +8.2805013e+01 </wgt>
<wgt id='1524'> +8.3067659e+01 </wgt>
<wgt id='1525'> +8.2745994e+01 </wgt>
<wgt id='1526'> +8.2780703e+01 </wgt>
<wgt id='1527'> +8.2683843e+01 </wgt>
<wgt id='1528'> +8.2695714e+01 </wgt>
<wgt id='1529'> +8.2992374e+01 </wgt>
<wgt id='1530'> +8.2913363e+01 </wgt>
<wgt id='1531'> +8.2822590e+01 </wgt>
<wgt id='1532'> +8.2685757e+01 </wgt>
<wgt id='1533'> +8.2895979e+01 </wgt>
<wgt id='1534'> +8.2893533e+01 </wgt>
<wgt id='1535'> +8.2934695e+01 </wgt>
<wgt id='1536'> +8.3047003e+01 </wgt>
<wgt id='1537'> +8.2969117e+01 </wgt>
<wgt id='1538'> +8.2933483e+01 </wgt>
<wgt id='1539'> +8.2876906e+01 </wgt>
<wgt id='1540'> +8.3225042e+01 </wgt>
<wgt id='1541'> +8.2959688e+01 </wgt>
<wgt id='1542'> +8.2875354e+01 </wgt>
<wgt id='1543'> +8.3050949e+01 </wgt>
<wgt id='1544'> +8.3053517e+01 </wgt>
<wgt id='1545'> +8.3038286e+01 </wgt>
<wgt id='1546'> +8.2981273e+01 </wgt>
<wgt id='1547'> +8.2885236e+01 </wgt>
<wgt id='1548'> +8.2775646e+01 </wgt>
<wgt id='1549'> +8.3091475e+01 </wgt>
<wgt id='1550'> +8.2883965e+01 </wgt>
<wgt id='1551'> +8.2966726e+01 </wgt>
<wgt id='1552'> +8.2903029e+01 </wgt>
<wgt id='1553'> +8.2817738e+01 </wgt>
<wgt id='1554'> +8.2827497e+01 </wgt>
<wgt id='1555'> +8.3019753e+01 </wgt>
<wgt id='1556'> +8.2884133e+01 </wgt>
<wgt id='1557'> +8.3052910e+01 </wgt>
<wgt id='1558'> +8.3024405e+01 </wgt>
<wgt id='1559'> +8.2871446e+01 </wgt>
<wgt id='1560'> +8.3075062e+01 </wgt>
<wgt id='1561'> +8.3022662e+01 </wgt>
<wgt id='1562'> +8.2865962e+01 </wgt>
<wgt id='1563'> +8.2930095e+01 </wgt>
<wgt id='1564'> +8.3011283e+01 </wgt>
<wgt id='1565'> +8.2990437e+01 </wgt>
<wgt id='1566'> +8.2952500e+01 </wgt>
<wgt id='1567'> +9.5682630e+01 </wgt>
<wgt id='1568'> +6.9766578e+01 </wgt>
<wgt id='1569'> +7.0541873e+01 </wgt>
<wgt id='1570'> +7.1129094e+01 </wgt>
<wgt id='1571'> +6.7937072e+01 </wgt>
<wgt id='1572'> +7.4327546e+01 </wgt>
<wgt id='1573'> +7.1468632e+01 </wgt>
<wgt id='1574'> +6.7877955e+01 </wgt>
<wgt id='1575'> +7.3411287e+01 </wgt>
<wgt id='1576'> +7.4392167e+01 </wgt>
<wgt id='1577'> +7.1600358e+01 </wgt>
<wgt id='1578'> +7.0407992e+01 </wgt>
<wgt id='1579'> +7.1158718e+01 </wgt>
<wgt id='1580'> +7.0185678e+01 </wgt>
<wgt id='1581'> +7.0131808e+01 </wgt>
<wgt id='1582'> +7.1080715e+01 </wgt>
<wgt id='1583'> +7.0233894e+01 </wgt>
<wgt id='1584'> +7.0375060e+01 </wgt>
<wgt id='1585'> +7.0595364e+01 </wgt>
<wgt id='1586'> +7.1062237e+01 </wgt>
<wgt id='1587'> +7.0785056e+01 </wgt>
<wgt id='1588'> +6.9951589e+01 </wgt>
<wgt id='1589'> +7.0648202e+01 </wgt>
<wgt id='1590'> +7.0630561e+01 </wgt>
<wgt id='1591'> +7.0476534e+01 </wgt>
<wgt id='1592'> +7.0682188e+01 </wgt>
<wgt id='1593'> +7.0860253e+01 </wgt>
<wgt id='1594'> +7.0619815e+01 </wgt>
<wgt id='1595'> +7.0639772e+01 </wgt>
<wgt id='1596'> +7.0775333e+01 </wgt>
<wgt id='1597'> +7.0475923e+01 </wgt>
<wgt id='1598'> +7.0783696e+01 </wgt>
<wgt id='1599'> +7.0708663e+01 </wgt>
<wgt id='1600'> +7.0785412e+01 </wgt>
<wgt id='1601'> +7.0868444e+01 </wgt>
<wgt id='1602'> +7.1057449e+01 </wgt>
<wgt id='1603'> +7.0650658e+01 </wgt>
<wgt id='1604'> +7.0494948e+01 </wgt>
<wgt id='1605'> +7.0527340e+01 </wgt>
<wgt id='1606'> +7.0518305e+01 </wgt>
<wgt id='1607'> +7.0551598e+01 </wgt>
<wgt id='1608'> +7.0610168e+01 </wgt>
<wgt id='1609'> +7.0517867e+01 </wgt>
<wgt id='1610'> +7.0504119e+01 </wgt>
<wgt id='1611'> +7.0496974e+01 </wgt>
<wgt id='1612'> +7.0448807e+01 </wgt>
<wgt id='1613'> +7.0573083e+01 </wgt>
<wgt id='1614'> +7.0303060e+01 </wgt>
<wgt id='1615'> +7.0550956e+01 </wgt>
<wgt id='1616'> +7.0411640e+01 </wgt>
<wgt id='1617'> +7.0674607e+01 </wgt>
<wgt id='1618'> +7.0468986e+01 </wgt>
<wgt id='1619'> +7.0616764e+01 </wgt>
<wgt id='1620'> +7.0536822e+01 </wgt>
<wgt id='1621'> +7.0369323e+01 </wgt>
<wgt id='1622'> +7.0722329e+01 </wgt>
<wgt id='1623'> +7.0550088e+01 </wgt>
<wgt id='1624'> +7.0603091e+01 </wgt>
<wgt id='1625'> +7.0572384e+01 </wgt>
<wgt id='1626'> +7.0452554e+01 </wgt>
<wgt id='1627'> +7.0615985e+01 </wgt>
<wgt id='1628'> +7.0532565e+01 </wgt>
<wgt id='1629'> +7.0471981e+01 </wgt>
<wgt id='1630'> +7.0618059e+01 </wgt>
<wgt id='1631'> +7.0493486e+01 </wgt>
<wgt id='1632'> +7.0601804e+01 </wgt>
<wgt id='1633'> +7.0410735e+01 </wgt>
<wgt id='1634'> +7.0638298e+01 </wgt>
<wgt id='1635'> +7.0594274e+01 </wgt>
<wgt id='1636'> +7.0579289e+01 </wgt>
<wgt id='1637'> +7.0593591e+01 </wgt>
<wgt id='1638'> +7.0567569e+01 </wgt>
<wgt id='1639'> +7.0564443e+01 </wgt>
<wgt id='1640'> +7.0620699e+01 </wgt>
<wgt id='1641'> +7.0570788e+01 </wgt>
<wgt id='1642'> +7.0528468e+01 </wgt>
<wgt id='1643'> +7.0563446e+01 </wgt>
<wgt id='1644'> +7.0518223e+01 </wgt>
<wgt id='1645'> +7.0509971e+01 </wgt>
<wgt id='1646'> +7.0553591e+01 </wgt>
<wgt id='1647'> +7.0606078e+01 </wgt>
<wgt id='1648'> +7.0527126e+01 </wgt>
<wgt id='1649'> +7.0537736e+01 </wgt>
<wgt id='1650'> +7.0506032e+01 </wgt>
<wgt id='1651'> +7.0552588e+01 </wgt>
<wgt id='1652'> +7.0494655e+01 </wgt>
<wgt id='1653'> +7.0549268e+01 </wgt>
<wgt id='1654'> +7.0584880e+01 </wgt>
<wgt id='1655'> +7.0563729e+01 </wgt>
<wgt id='1656'> +7.0551680e+01 </wgt>
<wgt id='1657'> +7.0563694e+01 </wgt>
<wgt id='1658'> +7.0567508e+01 </wgt>
<wgt id='1659'> +7.0579183e+01 </wgt>
<wgt id='1660'> +7.0524771e+01 </wgt>
<wgt id='1661'> +7.0559929e+01 </wgt>
<wgt id='1662'> +7.0515607e+01 </wgt>
<wgt id='1663'> +7.0591652e+01 </wgt>
<wgt id='1664'> +7.0543662e+01 </wgt>
<wgt id='1665'> +7.0496779e+01 </wgt>
<wgt id='1666'> +7.0538823e+01 </wgt>
<wgt id='1667'> +7.0579259e+01 </wgt>
<wgt id='1668'> +7.0528119e+01 </wgt>
<wgt id='1669'> +7.0521274e+01 </wgt>
<wgt id='1670'> +8.4624834e+01 </wgt>
<wgt id='1671'> +5.7065360e+01 </wgt>
<wgt id='1672'> +8.2740273e+01 </wgt>
<wgt id='1673'> +8.1345054e+01 </wgt>
<wgt id='1674'> +8.2989107e+01 </wgt>
<wgt id='1675'> +8.2675698e+01 </wgt>
<wgt id='1676'> +8.7103491e+01 </wgt>
<wgt id='1677'> +8.0484634e+01 </wgt>
<wgt id='1678'> +8.3014062e+01 </wgt>
<wgt id='1679'> +8.2463430e+01 </wgt>
<wgt id='1680'> +8.2333470e+01 </wgt>
<wgt id='1681'> +8.5019822e+01 </wgt>
<wgt id='1682'> +8.2118270e+01 </wgt>
<wgt id='1683'> +8.4042066e+01 </wgt>
<wgt id='1684'> +8.2288813e+01 </wgt>
<wgt id='1685'> +8.2375667e+01 </wgt>
<wgt id='1686'> +8.3121907e+01 </wgt>
<wgt id='1687'> +8.3070668e+01 </wgt>
<wgt id='1688'> +8.3530376e+01 </wgt>
<wgt id='1689'> +7.7647753e+01 </wgt>
<wgt id='1690'> +8.2496042e+01 </wgt>
<wgt id='1691'> +8.2946041e+01 </wgt>
<wgt id='1692'> +8.2614800e+01 </wgt>
<wgt id='1693'> +8.2454633e+01 </wgt>
<wgt id='1694'> +8.2715219e+01 </wgt>
<wgt id='1695'> +8.2784916e+01 </wgt>
<wgt id='1696'> +8.2510687e+01 </wgt>
<wgt id='1697'> +8.2922060e+01 </wgt>
<wgt id='1698'> +8.3009692e+01 </wgt>
<wgt id='1699'> +8.2949114e+01 </wgt>
<wgt id='1700'> +8.3025599e+01 </wgt>
<wgt id='1701'> +8.1898603e+01 </wgt>
<wgt id='1702'> +8.2802185e+01 </wgt>
<wgt id='1703'> +9.5682630e+01 </wgt>
<wgt id='1704'> +6.9766578e+01 </wgt>
<wgt id='1705'> +7.0559164e+01 </wgt>
<wgt id='1706'> +7.1768520e+01 </wgt>
<wgt id='1707'> +6.9496050e+01 </wgt>
<wgt id='1708'> +7.0506739e+01 </wgt>
<wgt id='1709'> +6.7124073e+01 </wgt>
<wgt id='1710'> +7.0587687e+01 </wgt>
<wgt id='1711'> +7.0649439e+01 </wgt>
<wgt id='1712'> +7.0602089e+01 </wgt>
<wgt id='1713'> +6.9979821e+01 </wgt>
<wgt id='1714'> +7.0878342e+01 </wgt>
<wgt id='1715'> +7.5875807e+01 </wgt>
<wgt id='1716'> +7.0997402e+01 </wgt>
<wgt id='1717'> +7.0401279e+01 </wgt>
<wgt id='1718'> +6.9582503e+01 </wgt>
<wgt id='1719'> +7.0700209e+01 </wgt>
<wgt id='1720'> +7.0673748e+01 </wgt>
<wgt id='1721'> +7.0660225e+01 </wgt>
<wgt id='1722'> +6.9605191e+01 </wgt>
<wgt id='1723'> +7.0402469e+01 </wgt>
<wgt id='1724'> +7.0649889e+01 </wgt>
<wgt id='1725'> +7.0036045e+01 </wgt>
<wgt id='1726'> +7.0148648e+01 </wgt>
<wgt id='1727'> +6.8837002e+01 </wgt>
<wgt id='1728'> +7.0752981e+01 </wgt>
<wgt id='1729'> +7.0540736e+01 </wgt>
<wgt id='1730'> +7.1689516e+01 </wgt>
<wgt id='1731'> +7.0509540e+01 </wgt>
<wgt id='1732'> +7.0573586e+01 </wgt>
<wgt id='1733'> +7.0518409e+01 </wgt>
<wgt id='1734'> +7.0663158e+01 </wgt>
<wgt id='1735'> +7.0566526e+01 </wgt>
<wgt id='1736'> +8.4624834e+01 </wgt>
<wgt id='1737'> +5.7065360e+01 </wgt>
<wgt id='1738'> +1.0211128e+02 </wgt>
<wgt id='1739'> +1.0211067e+02 </wgt>
<wgt id='1740'> +1.0211123e+02 </wgt>
<wgt id='1741'> +1.0282701e+02 </wgt>
<wgt id='1742'> +1.0139508e+02 </wgt>
<wgt id='1743'> +1.0173584e+02 </wgt>
<wgt id='1744'> +1.0248449e+02 </wgt>
<wgt id='1745'> +1.0069719e+02 </wgt>
<wgt id='1746'> +1.0351507e+02 </wgt>
<wgt id='1747'> +1.0268814e+02 </wgt>
<wgt id='1748'> +1.0153788e+02 </wgt>
<wgt id='1749'> +1.0196070e+02 </wgt>
<wgt id='1750'> +1.0185543e+02 </wgt>
<wgt id='1751'> +1.0221952e+02 </wgt>
<wgt id='1752'> +1.0196843e+02 </wgt>
<wgt id='1753'> +1.0220935e+02 </wgt>
<wgt id='1754'> +1.0353111e+02 </wgt>
<wgt id='1755'> +1.0158150e+02 </wgt>
<wgt id='1756'> +1.0182853e+02 </wgt>
<wgt id='1757'> +1.0262923e+02 </wgt>
<wgt id='1758'> +1.0198412e+02 </wgt>
<wgt id='1759'> +1.0244254e+02 </wgt>
<wgt id='1760'> +1.0153246e+02 </wgt>
<wgt id='1761'> +1.0142990e+02 </wgt>
<wgt id='1762'> +1.0208644e+02 </wgt>
<wgt id='1763'> +1.0227863e+02 </wgt>
<wgt id='1764'> +1.0224203e+02 </wgt>
<wgt id='1765'> +1.0141288e+02 </wgt>
<wgt id='1766'> +1.0272950e+02 </wgt>
<wgt id='1767'> +1.0211128e+02 </wgt>
<wgt id='1768'> +1.0242694e+02 </wgt>
<wgt id='1769'> +1.0179017e+02 </wgt>
<wgt id='1770'> +1.0247033e+02 </wgt>
<wgt id='1771'> +1.0189767e+02 </wgt>
<wgt id='1772'> +1.0447353e+02 </wgt>
<wgt id='1773'> +1.0231167e+02 </wgt>
<wgt id='1774'> +1.0160172e+02 </wgt>
<wgt id='1775'> +1.0263286e+02 </wgt>
<wgt id='1776'> +1.0041882e+02 </wgt>
<wgt id='1777'> +1.0398500e+02 </wgt>
<wgt id='1778'> +1.0198883e+02 </wgt>
<wgt id='1779'> +1.0412854e+02 </wgt>
<wgt id='1780'> +1.0238123e+02 </wgt>
<wgt id='1781'> +8.8591146e+01 </wgt>
<wgt id='1782'> +8.8672703e+01 </wgt>
<wgt id='1783'> +8.8562798e+01 </wgt>
<wgt id='1784'> +8.9604830e+01 </wgt>
<wgt id='1785'> +8.7628088e+01 </wgt>
<wgt id='1786'> +8.8822476e+01 </wgt>
<wgt id='1787'> +8.8412729e+01 </wgt>
<wgt id='1788'> +8.7381841e+01 </wgt>
<wgt id='1789'> +8.9817463e+01 </wgt>
<wgt id='1790'> +8.9040001e+01 </wgt>
<wgt id='1791'> +8.8129980e+01 </wgt>
<wgt id='1792'> +8.8638414e+01 </wgt>
<wgt id='1793'> +8.8584029e+01 </wgt>
<wgt id='1794'> +8.8402063e+01 </wgt>
<wgt id='1795'> +8.8893176e+01 </wgt>
<wgt id='1796'> +8.9511806e+01 </wgt>
<wgt id='1797'> +8.9590513e+01 </wgt>
<wgt id='1798'> +8.8412017e+01 </wgt>
<wgt id='1799'> +8.8768443e+01 </wgt>
<wgt id='1800'> +8.9164247e+01 </wgt>
<wgt id='1801'> +8.8017748e+01 </wgt>
<wgt id='1802'> +8.7899276e+01 </wgt>
<wgt id='1803'> +8.9049995e+01 </wgt>
<wgt id='1804'> +8.8320872e+01 </wgt>
<wgt id='1805'> +8.8877057e+01 </wgt>
<wgt id='1806'> +8.8432807e+01 </wgt>
<wgt id='1807'> +8.8337525e+01 </wgt>
<wgt id='1808'> +8.8438653e+01 </wgt>
<wgt id='1809'> +8.8737028e+01 </wgt>
<wgt id='1810'> +8.9284229e+01 </wgt>
<wgt id='1811'> +8.9631771e+01 </wgt>
<wgt id='1812'> +8.8870578e+01 </wgt>
<wgt id='1813'> +8.9756004e+01 </wgt>
<wgt id='1814'> +8.9021782e+01 </wgt>
<wgt id='1815'> +8.9123408e+01 </wgt>
<wgt id='1816'> +9.0743741e+01 </wgt>
<wgt id='1817'> +8.8783372e+01 </wgt>
<wgt id='1818'> +8.9814294e+01 </wgt>
<wgt id='1819'> +8.5981852e+01 </wgt>
<wgt id='1820'> +9.0502217e+01 </wgt>
<wgt id='1821'> +8.7390541e+01 </wgt>
<wgt id='1822'> +9.1848042e+01 </wgt>
<wgt id='1823'> +8.9054066e+01 </wgt>
<wgt id='1824'> +8.9759053e+01 </wgt>
<wgt id='1825'> +8.9741331e+01 </wgt>
<wgt id='1826'> +8.9725226e+01 </wgt>
<wgt id='1827'> +8.9709690e+01 </wgt>
<wgt id='1828'> +8.9693746e+01 </wgt>
<wgt id='1829'> +8.9678686e+01 </wgt>
<wgt id='1830'> +8.9661730e+01 </wgt>
<wgt id='1831'> +8.9647801e+01 </wgt>
<wgt id='1832'> +8.9629772e+01 </wgt>
<wgt id='1833'> +8.9615614e+01 </wgt>
<wgt id='1834'> +8.9598687e+01 </wgt>
<wgt id='1835'> +8.9581868e+01 </wgt>
<wgt id='1836'> +8.9567452e+01 </wgt>
<wgt id='1837'> +8.9550201e+01 </wgt>
<wgt id='1838'> +8.9536003e+01 </wgt>
<wgt id='1839'> +8.9518783e+01 </wgt>
<wgt id='1840'> +8.9504046e+01 </wgt>
<wgt id='1841'> +8.9488030e+01 </wgt>
<wgt id='1842'> +8.9470754e+01 </wgt>
<wgt id='1843'> +8.9455733e+01 </wgt>
<wgt id='1844'> +8.9440106e+01 </wgt>
<wgt id='1845'> +8.9424840e+01 </wgt>
<wgt id='1846'> +8.9407873e+01 </wgt>
<wgt id='1847'> +8.9392539e+01 </wgt>
<wgt id='1848'> +8.9375781e+01 </wgt>
<wgt id='1849'> +8.9361816e+01 </wgt>
<wgt id='1850'> +8.9344616e+01 </wgt>
<wgt id='1851'> +8.9328629e+01 </wgt>
<wgt id='1852'> +8.9314062e+01 </wgt>
<wgt id='1853'> +8.9297172e+01 </wgt>
<wgt id='1854'> +8.9282047e+01 </wgt>
<wgt id='1855'> +7.0062018e+01 </wgt>
<wgt id='1856'> +7.0776021e+01 </wgt>
<wgt id='1857'> +6.7537069e+01 </wgt>
<wgt id='1858'> +7.3783898e+01 </wgt>
<wgt id='1859'> +7.1008480e+01 </wgt>
<wgt id='1860'> +6.7416003e+01 </wgt>
<wgt id='1861'> +7.2806668e+01 </wgt>
<wgt id='1862'> +7.3805315e+01 </wgt>
<wgt id='1863'> +7.1107486e+01 </wgt>
<wgt id='1864'> +6.9903109e+01 </wgt>
<wgt id='1865'> +7.0678898e+01 </wgt>
<wgt id='1866'> +6.9588095e+01 </wgt>
<wgt id='1867'> +6.9596516e+01 </wgt>
<wgt id='1868'> +7.0514991e+01 </wgt>
<wgt id='1869'> +6.9788936e+01 </wgt>
<wgt id='1870'> +7.0117261e+01 </wgt>
<wgt id='1871'> +6.9983595e+01 </wgt>
<wgt id='1872'> +7.0632492e+01 </wgt>
<wgt id='1873'> +7.0343183e+01 </wgt>
<wgt id='1874'> +6.9390183e+01 </wgt>
<wgt id='1875'> +7.0049774e+01 </wgt>
<wgt id='1876'> +7.0205791e+01 </wgt>
<wgt id='1877'> +7.0023538e+01 </wgt>
<wgt id='1878'> +7.0140654e+01 </wgt>
<wgt id='1879'> +7.0434710e+01 </wgt>
<wgt id='1880'> +7.0259940e+01 </wgt>
<wgt id='1881'> +7.0263211e+01 </wgt>
<wgt id='1882'> +7.0169103e+01 </wgt>
<wgt id='1883'> +6.9949471e+01 </wgt>
<wgt id='1884'> +7.0355308e+01 </wgt>
<wgt id='1885'> +7.0280860e+01 </wgt>
<wgt id='1886'> +7.0164239e+01 </wgt>
<wgt id='1887'> +7.0424743e+01 </wgt>
<wgt id='1888'> +7.0606939e+01 </wgt>
<wgt id='1889'> +7.0172100e+01 </wgt>
<wgt id='1890'> +7.0037621e+01 </wgt>
<wgt id='1891'> +7.0041386e+01 </wgt>
<wgt id='1892'> +7.0030605e+01 </wgt>
<wgt id='1893'> +7.0092061e+01 </wgt>
<wgt id='1894'> +7.0166900e+01 </wgt>
<wgt id='1895'> +7.0036936e+01 </wgt>
<wgt id='1896'> +7.0061017e+01 </wgt>
<wgt id='1897'> +7.0044893e+01 </wgt>
<wgt id='1898'> +6.9899288e+01 </wgt>
<wgt id='1899'> +7.0107738e+01 </wgt>
<wgt id='1900'> +6.9847440e+01 </wgt>
<wgt id='1901'> +7.0038849e+01 </wgt>
<wgt id='1902'> +6.9964325e+01 </wgt>
<wgt id='1903'> +7.0174932e+01 </wgt>
<wgt id='1904'> +7.0005106e+01 </wgt>
<wgt id='1905'> +7.0124417e+01 </wgt>
<wgt id='1906'> +7.0069973e+01 </wgt>
<wgt id='1907'> +6.9899612e+01 </wgt>
<wgt id='1908'> +7.0230159e+01 </wgt>
<wgt id='1909'> +7.0053342e+01 </wgt>
<wgt id='1910'> +7.0104905e+01 </wgt>
<wgt id='1911'> +7.0133940e+01 </wgt>
<wgt id='1912'> +6.9972829e+01 </wgt>
<wgt id='1913'> +7.0094035e+01 </wgt>
<wgt id='1914'> +7.0032767e+01 </wgt>
<wgt id='1915'> +6.9976482e+01 </wgt>
<wgt id='1916'> +7.0125752e+01 </wgt>
<wgt id='1917'> +7.0025777e+01 </wgt>
<wgt id='1918'> +7.0135141e+01 </wgt>
<wgt id='1919'> +6.9919828e+01 </wgt>
<wgt id='1920'> +7.0163168e+01 </wgt>
<wgt id='1921'> +7.0114796e+01 </wgt>
<wgt id='1922'> +7.0118851e+01 </wgt>
<wgt id='1923'> +7.0108420e+01 </wgt>
<wgt id='1924'> +7.0106020e+01 </wgt>
<wgt id='1925'> +7.0091967e+01 </wgt>
<wgt id='1926'> +7.0126768e+01 </wgt>
<wgt id='1927'> +7.0099316e+01 </wgt>
<wgt id='1928'> +7.0065690e+01 </wgt>
<wgt id='1929'> +7.0082770e+01 </wgt>
<wgt id='1930'> +7.0035359e+01 </wgt>
<wgt id='1931'> +7.0003248e+01 </wgt>
<wgt id='1932'> +7.0067074e+01 </wgt>
<wgt id='1933'> +7.0104084e+01 </wgt>
<wgt id='1934'> +7.0051397e+01 </wgt>
<wgt id='1935'> +7.0081967e+01 </wgt>
<wgt id='1936'> +7.0007103e+01 </wgt>
<wgt id='1937'> +7.0066608e+01 </wgt>
<wgt id='1938'> +7.0015112e+01 </wgt>
<wgt id='1939'> +7.0078911e+01 </wgt>
<wgt id='1940'> +7.0092724e+01 </wgt>
<wgt id='1941'> +7.0055024e+01 </wgt>
<wgt id='1942'> +7.0080364e+01 </wgt>
<wgt id='1943'> +7.0094585e+01 </wgt>
<wgt id='1944'> +7.0095844e+01 </wgt>
<wgt id='1945'> +7.0104691e+01 </wgt>
<wgt id='1946'> +7.0059909e+01 </wgt>
<wgt id='1947'> +7.0090565e+01 </wgt>
<wgt id='1948'> +7.0031634e+01 </wgt>
<wgt id='1949'> +7.0130602e+01 </wgt>
<wgt id='1950'> +7.0061901e+01 </wgt>
<wgt id='1951'> +7.0008394e+01 </wgt>
<wgt id='1952'> +7.0059347e+01 </wgt>
<wgt id='1953'> +7.0102335e+01 </wgt>
<wgt id='1954'> +7.0039780e+01 </wgt>
<wgt id='1955'> +7.0037187e+01 </wgt>
<wgt id='1956'> +7.0061140e+01 </wgt>
<wgt id='1957'> +7.0067050e+01 </wgt>
<wgt id='1958'> +7.0062993e+01 </wgt>
<wgt id='1959'> +7.0063165e+01 </wgt>
<wgt id='1960'> +7.0064857e+01 </wgt>
<wgt id='1961'> +7.0062442e+01 </wgt>
<wgt id='1962'> +7.0068168e+01 </wgt>
</rwgt>
</event>
<event npLO=" -1 " npNLO=" 0 ">
 6      0 +1.5146096e+02 4.74318490e+01 7.54677110e-03 1.13611170e-01
        1 -1    0    0  501    0 +0.0000000000e+00 +0.0000000000e+00 +1.8415912000e+02 1.8415912000e+02 0.0000000000e+00 0.0000e+00 9.0000e+00
       -1 -1    0    0    0  501 +0.0000000000e+00 +0.0000000000e+00 -1.3850420000e+01 1.3850420000e+01 0.0000000000e+00 0.0000e+00 9.0000e+00
       23  2    1    2    0    0 +0.0000000000e+00 +0.0000000000e+00 +1.7030870000e+02 1.9800954000e+02 1.0100854000e+02 0.0000e+00 0.0000e+00
       13  1    3    3    0    0 +3.1813133000e+01 +3.3194980000e+01 +1.1673523000e+02 1.2546353000e+02 0.0000000000e+00 0.0000e+00 9.0000e+00
      -13  1    3    3    0    0 -1.5126124000e+01 -2.7258496000e+01 +3.2919029000e+01 4.5337487000e+01 0.0000000000e+00 0.0000e+00 9.0000e+00
       22  1    3    3    0    0 -1.6687009000e+01 -5.9364839000e+00 +2.0654443000e+01 2.7208530000e+01 0.0000000000e+00 0.0000e+00 9.0000e+00
#aMCatNLO 1  0  0  2  1 0.74147953E+02 0.00000000E+00 -9  6  0 0.00000000E+00 0.00000000E+00 0.00000000E+00 0.00000000E+00 0.00000000E+00
<rwgt>
<wgt id='1001'> +1.5146000e+02 </wgt>
<wgt id='1002'> +1.5146000e+02 </wgt>
<wgt id='1003'> +1.4236000e+02 </wgt>
<wgt id='1004'> +1.5752000e+02 </wgt>
<wgt id='1005'> +1.5661000e+02 </wgt>
<wgt id='1006'> +1.5575000e+02 </wgt>
<wgt id='1007'> +1.3156000e+02 </wgt>
<wgt id='1008'> +1.4311000e+02 </wgt>
<wgt id='1009'> +1.5916000e+02 </wgt>
<wgt id='1010'> +1.5108000e+02 </wgt>
<wgt id='1011'> +1.5125000e+02 </wgt>
<wgt id='1012'> +1.5328000e+02 </wgt>
<wgt id='1013'> +1.5272000e+02 </wgt>
<wgt id='1014'> +1.4906000e+02 </wgt>
<wgt id='1015'> +1.5795000e+02 </wgt>
<wgt id='1016'> +1.5218000e+02 </wgt>
<wgt id='1017'> +1.5339000e+02 </wgt>
<wgt id='1018'> +1.4330000e+02 </wgt>
<wgt id='1019'> +1.4797000e+02 </wgt>
<wgt id='1020'> +1.4031000e+02 </wgt>
<wgt id='1021'> +1.5622000e+02 </wgt>
<wgt id='1022'> +1.4733000e+02 </wgt>
<wgt id='1023'> +1.6306000e+02 </wgt>
<wgt id='1024'> +1.5481000e+02 </wgt>
<wgt id='1025'> +1.5701000e+02 </wgt>
<wgt id='1026'> +1.4924000e+02 </wgt>
<wgt id='1027'> +1.5265000e+02 </wgt>
<wgt id='1028'> +1.5237000e+02 </wgt>
<wgt id='1029'> +1.4940000e+02 </wgt>
<wgt id='1030'> +1.5022000e+02 </wgt>
<wgt id='1031'> +1.5084000e+02 </wgt>
<wgt id='1032'> +1.5258000e+02 </wgt>
<wgt id='1033'> +1.5695000e+02 </wgt>
<wgt id='1034'> +1.4638000e+02 </wgt>
<wgt id='1035'> +1.5556000e+02 </wgt>
<wgt id='1036'> +1.4647000e+02 </wgt>
<wgt id='1037'> +1.5582000e+02 </wgt>
<wgt id='1038'> +1.4801000e+02 </wgt>
<wgt id='1039'> +1.5217000e+02 </wgt>
<wgt id='1040'> +1.4578000e+02 </wgt>
<wgt id='1041'> +1.4915000e+02 </wgt>
<wgt id='1042'> +1.5356000e+02 </wgt>
<wgt id='1043'> +1.6050000e+02 </wgt>
<wgt id='1044'> +1.5544000e+02 </wgt>
<wgt id='1045'> +1.5164000e+02 </wgt>
<wgt id='1046'> +1.4926000e+02 </wgt>
<wgt id='1047'> +1.5512000e+02 </wgt>
<wgt id='1048'> +1.5022000e+02 </wgt>
<wgt id='1049'> +1.5051000e+02 </wgt>
<wgt id='1050'> +1.5061000e+02 </wgt>
<wgt id='1051'> +1.4806000e+02 </wgt>
<wgt id='1052'> +1.5647000e+02 </wgt>
<wgt id='1053'> +1.5697000e+02 </wgt>
<wgt id='1054'> +1.4959000e+02 </wgt>
<wgt id='1055'> +1.4760000e+02 </wgt>
<wgt id='1056'> +1.5538000e+02 </wgt>
<wgt id='1057'> +1.5063000e+02 </wgt>
<wgt id='1058'> +1.4836000e+02 </wgt>
<wgt id='1059'> +1.5537000e+02 </wgt>
<wgt id='1060'> +1.5374000e+02 </wgt>
<wgt id='1061'> +1.5314000e+02 </wgt>
<wgt id='1062'> +1.5348000e+02 </wgt>
<wgt id='1063'> +1.5121000e+02 </wgt>
<wgt id='1064'> +1.5383000e+02 </wgt>
<wgt id='1065'> +1.4268000e+02 </wgt>
<wgt id='1066'> +1.4861000e+02 </wgt>
<wgt id='1067'> +1.5206000e+02 </wgt>
<wgt id='1068'> +1.5045000e+02 </wgt>
<wgt id='1069'> +1.6025000e+02 </wgt>
<wgt id='1070'> +1.5526000e+02 </wgt>
<wgt id='1071'> +1.5010000e+02 </wgt>
<wgt id='1072'> +1.4871000e+02 </wgt>
<wgt id='1073'> +1.4982000e+02 </wgt>
<wgt id='1074'> +1.4174000e+02 </wgt>
<wgt id='1075'> +1.4038000e+02 </wgt>
<wgt id='1076'> +1.4917000e+02 </wgt>
<wgt id='1077'> +1.5550000e+02 </wgt>
<wgt id='1078'> +1.3718000e+02 </wgt>
<wgt id='1079'> +1.4920000e+02 </wgt>
<wgt id='1080'> +1.5480000e+02 </wgt>
<wgt id='1081'> +1.4943000e+02 </wgt>
<wgt id='1082'> +1.5505000e+02 </wgt>
<wgt id='1083'> +1.5466000e+02 </wgt>
<wgt id='1084'> +1.5686000e+02 </wgt>
<wgt id='1085'> +1.4778000e+02 </wgt>
<wgt id='1086'> +1.5305000e+02 </wgt>
<wgt id='1087'> +1.5252000e+02 </wgt>
<wgt id='1088'> +1.5287000e+02 </wgt>
<wgt id='1089'> +1.5387000e+02 </wgt>
<wgt id='1090'> +1.5766000e+02 </wgt>
<wgt id='1091'> +1.4665000e+02 </wgt>
<wgt id='1092'> +1.5505000e+02 </wgt>
<wgt id='1093'> +1.6126000e+02 </wgt>
<wgt id='1094'> +1.4825000e+02 </wgt>
<wgt id='1095'> +1.4895000e+02 </wgt>
<wgt id='1096'> +1.5377000e+02 </wgt>
<wgt id='1097'> +1.4838000e+02 </wgt>
<wgt id='1098'> +1.5145000e+02 </wgt>
<wgt id='1099'> +1.5424000e+02 </wgt>
<wgt id='1100'> +1.5384000e+02 </wgt>
<wgt id='1101'> +1.5622000e+02 </wgt>
<wgt id='1102'> +1.4909000e+02 </wgt>
<wgt id='1103'> +1.5148000e+02 </wgt>
<wgt id='1104'> +1.5208000e+02 </wgt>
<wgt id='1105'> +1.5146096e+02 </wgt>
<wgt id='1106'> +7.8595942e+01 </wgt>
<wgt id='1107'> +7.2193109e+01 </wgt>
<wgt id='1108'> +4.0828675e+01 </wgt>
<wgt id='1109'> +4.7951561e+01 </wgt>
<wgt id='1110'> +3.2035573e+01 </wgt>
<wgt id='1111'> +1.0455887e+02 </wgt>
<wgt id='1112'> +1.0363188e+02 </wgt>
<wgt id='1113'> +1.0570322e+02 </wgt>
<wgt id='1114'> +8.3575476e+01 </wgt>
<wgt id='1115'> +9.0078514e+01 </wgt>
<wgt id='1116'> +8.5578054e+01 </wgt>
<wgt id='1117'> +7.6114301e+01 </wgt>
<wgt id='1118'> +8.0884329e+01 </wgt>
<wgt id='1119'> +8.2245380e+01 </wgt>
<wgt id='1120'> +8.8962724e+01 </wgt>
<wgt id='1121'> +8.5385679e+01 </wgt>
<wgt id='1122'> +8.0035006e+01 </wgt>
<wgt id='1123'> +8.2800693e+01 </wgt>
<wgt id='1124'> +8.1902249e+01 </wgt>
<wgt id='1125'> +8.2310370e+01 </wgt>
<wgt id='1126'> +8.2318479e+01 </wgt>
<wgt id='1127'> +8.2928361e+01 </wgt>
<wgt id='1128'> +8.1552816e+01 </wgt>
<wgt id='1129'> +8.5940576e+01 </wgt>
<wgt id='1130'> +8.4574756e+01 </wgt>
<wgt id='1131'> +8.7307349e+01 </wgt>
<wgt id='1132'> +8.3820812e+01 </wgt>
<wgt id='1133'> +8.2943746e+01 </wgt>
<wgt id='1134'> +7.9629769e+01 </wgt>
<wgt id='1135'> +8.0884201e+01 </wgt>
<wgt id='1136'> +8.4356327e+01 </wgt>
<wgt id='1137'> +8.7470003e+01 </wgt>
<wgt id='1138'> +8.4312857e+01 </wgt>
<wgt id='1139'> +8.3484091e+01 </wgt>
<wgt id='1140'> +8.2171542e+01 </wgt>
<wgt id='1141'> +8.8290186e+01 </wgt>
<wgt id='1142'> +8.3824566e+01 </wgt>
<wgt id='1143'> +8.5097382e+01 </wgt>
<wgt id='1144'> +8.7330138e+01 </wgt>
<wgt id='1145'> +8.2289399e+01 </wgt>
<wgt id='1146'> +8.4600259e+01 </wgt>
<wgt id='1147'> +8.6545069e+01 </wgt>
<wgt id='1148'> +8.1641479e+01 </wgt>
<wgt id='1149'> +8.3894673e+01 </wgt>
<wgt id='1150'> +8.3259698e+01 </wgt>
<wgt id='1151'> +8.4329324e+01 </wgt>
<wgt id='1152'> +8.3209910e+01 </wgt>
<wgt id='1153'> +8.0199367e+01 </wgt>
<wgt id='1154'> +7.9888260e+01 </wgt>
<wgt id='1155'> +8.1243824e+01 </wgt>
<wgt id='1156'> +8.5611787e+01 </wgt>
<wgt id='1157'> +8.5368059e+01 </wgt>
<wgt id='1158'> +8.4865218e+01 </wgt>
<wgt id='1159'> +8.3993795e+01 </wgt>
<wgt id='1160'> +8.4665444e+01 </wgt>
<wgt id='1161'> +8.4713413e+01 </wgt>
<wgt id='1162'> +7.8949402e+01 </wgt>
<wgt id='1163'> +8.7310894e+01 </wgt>
<wgt id='1164'> +8.4836040e+01 </wgt>
<wgt id='1165'> +8.2775374e+01 </wgt>
<wgt id='1166'> +8.3262984e+01 </wgt>
<wgt id='1167'> +8.4436663e+01 </wgt>
<wgt id='1168'> +8.7990129e+01 </wgt>
<wgt id='1169'> +7.8406047e+01 </wgt>
<wgt id='1170'> +8.5931361e+01 </wgt>
<wgt id='1171'> +8.8697289e+01 </wgt>
<wgt id='1172'> +8.3817269e+01 </wgt>
<wgt id='1173'> +8.4139791e+01 </wgt>
<wgt id='1174'> +8.2872965e+01 </wgt>
<wgt id='1175'> +8.5132668e+01 </wgt>
<wgt id='1176'> +8.6113815e+01 </wgt>
<wgt id='1177'> +8.0120189e+01 </wgt>
<wgt id='1178'> +7.8636328e+01 </wgt>
<wgt id='1179'> +8.5788912e+01 </wgt>
<wgt id='1180'> +8.4797507e+01 </wgt>
<wgt id='1181'> +8.2505038e+01 </wgt>
<wgt id='1182'> +8.6080628e+01 </wgt>
<wgt id='1183'> +8.4714476e+01 </wgt>
<wgt id='1184'> +8.3992526e+01 </wgt>
<wgt id='1185'> +8.2681851e+01 </wgt>
<wgt id='1186'> +8.6375912e+01 </wgt>
<wgt id='1187'> +7.9582293e+01 </wgt>
<wgt id='1188'> +7.9746071e+01 </wgt>
<wgt id='1189'> +8.2686865e+01 </wgt>
<wgt id='1190'> +8.2750890e+01 </wgt>
<wgt id='1191'> +8.1028675e+01 </wgt>
<wgt id='1192'> +8.5209612e+01 </wgt>
<wgt id='1193'> +8.2795506e+01 </wgt>
<wgt id='1194'> +8.2135092e+01 </wgt>
<wgt id='1195'> +8.3510066e+01 </wgt>
<wgt id='1196'> +8.4574756e+01 </wgt>
<wgt id='1197'> +8.0154576e+01 </wgt>
<wgt id='1198'> +8.2438561e+01 </wgt>
<wgt id='1199'> +8.2927648e+01 </wgt>
<wgt id='1200'> +8.9333836e+01 </wgt>
<wgt id='1201'> +8.6340275e+01 </wgt>
<wgt id='1202'> +8.5732008e+01 </wgt>
<wgt id='1203'> +7.7168811e+01 </wgt>
<wgt id='1204'> +8.2937105e+01 </wgt>
<wgt id='1205'> +8.4792769e+01 </wgt>
<wgt id='1206'> +8.0888818e+01 </wgt>
<wgt id='1207'> +8.3314922e+01 </wgt>
<wgt id='1208'> +8.7694484e+01 </wgt>
<wgt id='1209'> +8.3741618e+01 </wgt>
<wgt id='1210'> +8.3780386e+01 </wgt>
<wgt id='1211'> +8.2816300e+01 </wgt>
<wgt id='1212'> +8.2156349e+01 </wgt>
<wgt id='1213'> +8.0107894e+01 </wgt>
<wgt id='1214'> +8.3258673e+01 </wgt>
<wgt id='1215'> +8.0621189e+01 </wgt>
<wgt id='1216'> +8.1401876e+01 </wgt>
<wgt id='1217'> +8.1419121e+01 </wgt>
<wgt id='1218'> +8.1614340e+01 </wgt>
<wgt id='1219'> +8.1269092e+01 </wgt>
<wgt id='1220'> +8.1819823e+01 </wgt>
<wgt id='1221'> +8.1538639e+01 </wgt>
<wgt id='1222'> +8.0997445e+01 </wgt>
<wgt id='1223'> +8.1767902e+01 </wgt>
<wgt id='1224'> +8.1920734e+01 </wgt>
<wgt id='1225'> +8.1733351e+01 </wgt>
<wgt id='1226'> +8.0992976e+01 </wgt>
<wgt id='1227'> +8.1143980e+01 </wgt>
<wgt id='1228'> +8.1481372e+01 </wgt>
<wgt id='1229'> +8.1976624e+01 </wgt>
<wgt id='1230'> +8.1266038e+01 </wgt>
<wgt id='1231'> +8.1093229e+01 </wgt>
<wgt id='1232'> +8.2351029e+01 </wgt>
<wgt id='1233'> +8.0975777e+01 </wgt>
<wgt id='1234'> +8.1732075e+01 </wgt>
<wgt id='1235'> +8.1552672e+01 </wgt>
<wgt id='1236'> +8.1078290e+01 </wgt>
<wgt id='1237'> +8.1885752e+01 </wgt>
<wgt id='1238'> +8.1217884e+01 </wgt>
<wgt id='1239'> +8.0729050e+01 </wgt>
<wgt id='1240'> +8.2317960e+01 </wgt>
<wgt id='1241'> +8.1182637e+01 </wgt>
<wgt id='1242'> +8.1703976e+01 </wgt>
<wgt id='1243'> +8.0982452e+01 </wgt>
<wgt id='1244'> +8.1401849e+01 </wgt>
<wgt id='1245'> +8.2198002e+01 </wgt>
<wgt id='1246'> +8.1044232e+01 </wgt>
<wgt id='1247'> +8.0965174e+01 </wgt>
<wgt id='1248'> +8.1809647e+01 </wgt>
<wgt id='1249'> +8.1150177e+01 </wgt>
<wgt id='1250'> +8.1304222e+01 </wgt>
<wgt id='1251'> +8.1714974e+01 </wgt>
<wgt id='1252'> +8.1404254e+01 </wgt>
<wgt id='1253'> +8.1167303e+01 </wgt>
<wgt id='1254'> +8.1373952e+01 </wgt>
<wgt id='1255'> +8.1542100e+01 </wgt>
<wgt id='1256'> +8.1338416e+01 </wgt>
<wgt id='1257'> +8.1630003e+01 </wgt>
<wgt id='1258'> +8.0988150e+01 </wgt>
<wgt id='1259'> +8.1253106e+01 </wgt>
<wgt id='1260'> +8.1321925e+01 </wgt>
<wgt id='1261'> +8.1187572e+01 </wgt>
<wgt id='1262'> +8.1614094e+01 </wgt>
<wgt id='1263'> +8.1684153e+01 </wgt>
<wgt id='1264'> +8.1501613e+01 </wgt>
<wgt id='1265'> +8.1411006e+01 </wgt>
<wgt id='1266'> +8.1547236e+01 </wgt>
<wgt id='1267'> +8.1239931e+01 </wgt>
<wgt id='1268'> +8.1125213e+01 </wgt>
<wgt id='1269'> +8.1283155e+01 </wgt>
<wgt id='1270'> +8.1454737e+01 </wgt>
<wgt id='1271'> +8.1518066e+01 </wgt>
<wgt id='1272'> +8.1518246e+01 </wgt>
<wgt id='1273'> +8.1367431e+01 </wgt>
<wgt id='1274'> +8.1502017e+01 </wgt>
<wgt id='1275'> +8.1419071e+01 </wgt>
<wgt id='1276'> +8.1262201e+01 </wgt>
<wgt id='1277'> +8.1443975e+01 </wgt>
<wgt id='1278'> +8.1573255e+01 </wgt>
<wgt id='1279'> +8.1487261e+01 </wgt>
<wgt id='1280'> +8.1351023e+01 </wgt>
<wgt id='1281'> +8.1301937e+01 </wgt>
<wgt id='1282'> +8.1385229e+01 </wgt>
<wgt id='1283'> +8.1373665e+01 </wgt>
<wgt id='1284'> +8.1361686e+01 </wgt>
<wgt id='1285'> +8.1374611e+01 </wgt>
<wgt id='1286'> +8.1332735e+01 </wgt>
<wgt id='1287'> +8.1426328e+01 </wgt>
<wgt id='1288'> +8.1554267e+01 </wgt>
<wgt id='1289'> +8.1395014e+01 </wgt>
<wgt id='1290'> +8.1427427e+01 </wgt>
<wgt id='1291'> +8.1333092e+01 </wgt>
<wgt id='1292'> +8.1381591e+01 </wgt>
<wgt id='1293'> +8.1420773e+01 </wgt>
<wgt id='1294'> +8.1429465e+01 </wgt>
<wgt id='1295'> +8.1375172e+01 </wgt>
<wgt id='1296'> +8.1423544e+01 </wgt>
<wgt id='1297'> +8.1377346e+01 </wgt>
<wgt id='1298'> +8.1408352e+01 </wgt>
<wgt id='1299'> +8.1419941e+01 </wgt>
<wgt id='1300'> +8.1414563e+01 </wgt>
<wgt id='1301'> +8.1412437e+01 </wgt>
<wgt id='1302'> +8.1397187e+01 </wgt>
<wgt id='1303'> +8.1362333e+01 </wgt>
<wgt id='1304'> +8.1383429e+01 </wgt>
<wgt id='1305'> +8.1469650e+01 </wgt>
<wgt id='1306'> +8.1450195e+01 </wgt>
<wgt id='1307'> +8.1429954e+01 </wgt>
<wgt id='1308'> +8.1465335e+01 </wgt>
<wgt id='1309'> +8.1420096e+01 </wgt>
<wgt id='1310'> +8.1360280e+01 </wgt>
<wgt id='1311'> +8.1381514e+01 </wgt>
<wgt id='1312'> +8.1355919e+01 </wgt>
<wgt id='1313'> +8.1392194e+01 </wgt>
<wgt id='1314'> +8.1397103e+01 </wgt>
<wgt id='1315'> +8.1402084e+01 </wgt>
<wgt id='1316'> +8.1440169e+01 </wgt>
<wgt id='1317'> +8.1178317e+01 </wgt>
<wgt id='1318'> +8.1666230e+01 </wgt>
<wgt id='1319'> +8.6096114e+01 </wgt>
<wgt id='1320'> +7.6134785e+01 </wgt>
<wgt id='1321'> +7.8459942e+01 </wgt>
<wgt id='1322'> +7.4636986e+01 </wgt>
<wgt id='1323'> +7.7333404e+01 </wgt>
<wgt id='1324'> +7.6507178e+01 </wgt>
<wgt id='1325'> +7.8554895e+01 </wgt>
<wgt id='1326'> +7.4896811e+01 </wgt>
<wgt id='1327'> +7.7097194e+01 </wgt>
<wgt id='1328'> +7.6900397e+01 </wgt>
<wgt id='1329'> +7.6248595e+01 </wgt>
<wgt id='1330'> +7.5048106e+01 </wgt>
<wgt id='1331'> +7.4544626e+01 </wgt>
<wgt id='1332'> +7.7778159e+01 </wgt>
<wgt id='1333'> +7.4052024e+01 </wgt>
<wgt id='1334'> +7.6632016e+01 </wgt>
<wgt id='1335'> +7.7391287e+01 </wgt>
<wgt id='1336'> +7.4081639e+01 </wgt>
<wgt id='1337'> +7.9033613e+01 </wgt>
<wgt id='1338'> +7.2953371e+01 </wgt>
<wgt id='1339'> +7.6526513e+01 </wgt>
<wgt id='1340'> +7.5649659e+01 </wgt>
<wgt id='1341'> +7.6505194e+01 </wgt>
<wgt id='1342'> +7.5346512e+01 </wgt>
<wgt id='1343'> +7.8185431e+01 </wgt>
<wgt id='1344'> +7.4130565e+01 </wgt>
<wgt id='1345'> +7.6639018e+01 </wgt>
<wgt id='1346'> +7.5844830e+01 </wgt>
<wgt id='1347'> +7.6307049e+01 </wgt>
<wgt id='1348'> +7.5903882e+01 </wgt>
<wgt id='1349'> +7.5051803e+01 </wgt>
<wgt id='1350'> +7.6496377e+01 </wgt>
<wgt id='1351'> +7.6329048e+01 </wgt>
<wgt id='1352'> +7.5869340e+01 </wgt>
<wgt id='1353'> +7.5523088e+01 </wgt>
<wgt id='1354'> +7.7427033e+01 </wgt>
<wgt id='1355'> +7.8254168e+01 </wgt>
<wgt id='1356'> +7.4235813e+01 </wgt>
<wgt id='1357'> +7.6551150e+01 </wgt>
<wgt id='1358'> +7.4991057e+01 </wgt>
<wgt id='1359'> +7.5532628e+01 </wgt>
<wgt id='1360'> +7.5934276e+01 </wgt>
<wgt id='1361'> +7.6136554e+01 </wgt>
<wgt id='1362'> +7.6741874e+01 </wgt>
<wgt id='1363'> +7.5870161e+01 </wgt>
<wgt id='1364'> +7.5838235e+01 </wgt>
<wgt id='1365'> +7.6061634e+01 </wgt>
<wgt id='1366'> +7.5272304e+01 </wgt>
<wgt id='1367'> +7.4543538e+01 </wgt>
<wgt id='1368'> +7.7001360e+01 </wgt>
<wgt id='1369'> +7.5545997e+01 </wgt>
<wgt id='1370'> +7.6739760e+01 </wgt>
<wgt id='1371'> +7.4965844e+01 </wgt>
<wgt id='1372'> +7.4967811e+01 </wgt>
<wgt id='1373'> +7.4942015e+01 </wgt>
<wgt id='1374'> +7.5339645e+01 </wgt>
<wgt id='1375'> +7.5493997e+01 </wgt>
<wgt id='1376'> +7.8042990e+01 </wgt>
<wgt id='1377'> +7.5374942e+01 </wgt>
<wgt id='1378'> +7.6769041e+01 </wgt>
<wgt id='1379'> +8.0131269e+01 </wgt>
<wgt id='1380'> +7.9165350e+01 </wgt>
<wgt id='1381'> +8.1150705e+01 </wgt>
<wgt id='1382'> +6.4104298e+01 </wgt>
<wgt id='1383'> +7.5494300e+01 </wgt>
<wgt id='1384'> +8.2896296e+01 </wgt>
<wgt id='1385'> +6.2637013e+01 </wgt>
<wgt id='1386'> +6.2725498e+01 </wgt>
<wgt id='1387'> +6.2539907e+01 </wgt>
<wgt id='1388'> +6.2358967e+01 </wgt>
<wgt id='1389'> +6.3126131e+01 </wgt>
<wgt id='1390'> +6.3058496e+01 </wgt>
<wgt id='1391'> +6.2150451e+01 </wgt>
<wgt id='1392'> +6.2652156e+01 </wgt>
<wgt id='1393'> +6.2640469e+01 </wgt>
<wgt id='1394'> +6.2392605e+01 </wgt>
<wgt id='1395'> +6.2949194e+01 </wgt>
<wgt id='1396'> +6.2752811e+01 </wgt>
<wgt id='1397'> +6.2578630e+01 </wgt>
<wgt id='1398'> +6.1722167e+01 </wgt>
<wgt id='1399'> +6.3326277e+01 </wgt>
<wgt id='1400'> +6.2394558e+01 </wgt>
<wgt id='1401'> +6.2825070e+01 </wgt>
<wgt id='1402'> +6.2791554e+01 </wgt>
<wgt id='1403'> +6.2569696e+01 </wgt>
<wgt id='1404'> +6.0896889e+01 </wgt>
<wgt id='1405'> +6.3536337e+01 </wgt>
<wgt id='1406'> +6.2300505e+01 </wgt>
<wgt id='1407'> +6.3247063e+01 </wgt>
<wgt id='1408'> +6.2189186e+01 </wgt>
<wgt id='1409'> +6.3549958e+01 </wgt>
<wgt id='1410'> +6.2481524e+01 </wgt>
<wgt id='1411'> +6.2994295e+01 </wgt>
<wgt id='1412'> +6.3039704e+01 </wgt>
<wgt id='1413'> +6.1942963e+01 </wgt>
<wgt id='1414'> +6.2667852e+01 </wgt>
<wgt id='1415'> +6.2646344e+01 </wgt>
<wgt id='1416'> +6.2068802e+01 </wgt>
<wgt id='1417'> +6.2940404e+01 </wgt>
<wgt id='1418'> +6.2302915e+01 </wgt>
<wgt id='1419'> +6.3293831e+01 </wgt>
<wgt id='1420'> +6.2422216e+01 </wgt>
<wgt id='1421'> +6.3101814e+01 </wgt>
<wgt id='1422'> +6.3136994e+01 </wgt>
<wgt id='1423'> +6.2082392e+01 </wgt>
<wgt id='1424'> +6.2860158e+01 </wgt>
<wgt id='1425'> +6.2187075e+01 </wgt>
<wgt id='1426'> +6.3422590e+01 </wgt>
<wgt id='1427'> +6.2838813e+01 </wgt>
<wgt id='1428'> +6.2494329e+01 </wgt>
<wgt id='1429'> +6.1885680e+01 </wgt>
<wgt id='1430'> +6.3131451e+01 </wgt>
<wgt id='1431'> +6.3324765e+01 </wgt>
<wgt id='1432'> +6.3221230e+01 </wgt>
<wgt id='1433'> +6.3444638e+01 </wgt>
<wgt id='1434'> +6.2923600e+01 </wgt>
<wgt id='1435'> +6.2374979e+01 </wgt>
<wgt id='1436'> +7.5471291e+01 </wgt>
<wgt id='1437'> +7.5459589e+01 </wgt>
<wgt id='1438'> +7.5599626e+01 </wgt>
<wgt id='1439'> +7.5479517e+01 </wgt>
<wgt id='1440'> +7.5104035e+01 </wgt>
<wgt id='1441'> +7.6037483e+01 </wgt>
<wgt id='1442'> +7.5267318e+01 </wgt>
<wgt id='1443'> +7.5325838e+01 </wgt>
<wgt id='1444'> +7.5638334e+01 </wgt>
<wgt id='1445'> +7.5005799e+01 </wgt>
<wgt id='1446'> +7.5876739e+01 </wgt>
<wgt id='1447'> +7.5306892e+01 </wgt>
<wgt id='1448'> +7.5301721e+01 </wgt>
<wgt id='1449'> +7.5594430e+01 </wgt>
<wgt id='1450'> +7.5488060e+01 </wgt>
<wgt id='1451'> +7.5611139e+01 </wgt>
<wgt id='1452'> +7.5553800e+01 </wgt>
<wgt id='1453'> +7.5784544e+01 </wgt>
<wgt id='1454'> +7.5583894e+01 </wgt>
<wgt id='1455'> +7.5858256e+01 </wgt>
<wgt id='1456'> +7.5493179e+01 </wgt>
<wgt id='1457'> +7.6061878e+01 </wgt>
<wgt id='1458'> +7.5474274e+01 </wgt>
<wgt id='1459'> +7.4724627e+01 </wgt>
<wgt id='1460'> +7.5349555e+01 </wgt>
<wgt id='1461'> +7.5166114e+01 </wgt>
<wgt id='1462'> +7.4595073e+01 </wgt>
<wgt id='1463'> +7.6672951e+01 </wgt>
<wgt id='1464'> +7.5510349e+01 </wgt>
<wgt id='1465'> +7.3938082e+01 </wgt>
<wgt id='1466'> +7.5818362e+01 </wgt>
<wgt id='1467'> +7.5669666e+01 </wgt>
<wgt id='1468'> +7.5487786e+01 </wgt>
<wgt id='1469'> +7.6749741e+01 </wgt>
<wgt id='1470'> +7.5525344e+01 </wgt>
<wgt id='1471'> +7.5824908e+01 </wgt>
<wgt id='1472'> +7.5088591e+01 </wgt>
<wgt id='1473'> +7.6067691e+01 </wgt>
<wgt id='1474'> +7.6245667e+01 </wgt>
<wgt id='1475'> +7.6262415e+01 </wgt>
<wgt id='1476'> +7.6244749e+01 </wgt>
<wgt id='1477'> +7.4711408e+01 </wgt>
<wgt id='1478'> +7.5398733e+01 </wgt>
<wgt id='1479'> +7.4913490e+01 </wgt>
<wgt id='1480'> +7.5634549e+01 </wgt>
<wgt id='1481'> +7.5477120e+01 </wgt>
<wgt id='1482'> +7.5226596e+01 </wgt>
<wgt id='1483'> +7.5959515e+01 </wgt>
<wgt id='1484'> +7.7120973e+01 </wgt>
<wgt id='1485'> +7.5368100e+01 </wgt>
<wgt id='1486'> +7.6363872e+01 </wgt>
<wgt id='1487'> +7.6059114e+01 </wgt>
<wgt id='1488'> +7.6191477e+01 </wgt>
<wgt id='1489'> +7.6235179e+01 </wgt>
<wgt id='1490'> +7.5561664e+01 </wgt>
<wgt id='1491'> +7.5969726e+01 </wgt>
<wgt id='1492'> +7.5666780e+01 </wgt>
<wgt id='1493'> +7.5851782e+01 </wgt>
<wgt id='1494'> +7.5440828e+01 </wgt>
<wgt id='1495'> +7.5609421e+01 </wgt>
<wgt id='1496'> +7.5423399e+01 </wgt>
<wgt id='1497'> +7.5760974e+01 </wgt>
<wgt id='1498'> +7.6031891e+01 </wgt>
<wgt id='1499'> +7.5381671e+01 </wgt>
<wgt id='1500'> +7.5793635e+01 </wgt>
<wgt id='1501'> +7.5775095e+01 </wgt>
<wgt id='1502'> +7.5844969e+01 </wgt>
<wgt id='1503'> +7.5958271e+01 </wgt>
<wgt id='1504'> +7.5513950e+01 </wgt>
<wgt id='1505'> +7.5640248e+01 </wgt>
<wgt id='1506'> +7.6019796e+01 </wgt>
<wgt id='1507'> +7.5581347e+01 </wgt>
<wgt id='1508'> +7.6055963e+01 </wgt>
<wgt id='1509'> +7.5778214e+01 </wgt>
<wgt id='1510'> +7.6090303e+01 </wgt>
<wgt id='1511'> +7.5835411e+01 </wgt>
<wgt id='1512'> +7.5752193e+01 </wgt>
<wgt id='1513'> +7.5873771e+01 </wgt>
<wgt id='1514'> +7.5837114e+01 </wgt>
<wgt id='1515'> +7.5910163e+01 </wgt>
<wgt id='1516'> +7.5894514e+01 </wgt>
<wgt id='1517'> +7.5842334e+01 </wgt>
<wgt id='1518'> +7.5709741e+01 </wgt>
<wgt id='1519'> +7.5647057e+01 </wgt>
<wgt id='1520'> +7.5696690e+01 </wgt>
<wgt id='1521'> +7.5848489e+01 </wgt>
<wgt id='1522'> +7.5693649e+01 </wgt>
<wgt id='1523'> +7.5762978e+01 </wgt>
<wgt id='1524'> +7.5978627e+01 </wgt>
<wgt id='1525'> +7.5813619e+01 </wgt>
<wgt id='1526'> +7.5762982e+01 </wgt>
<wgt id='1527'> +7.5814064e+01 </wgt>
<wgt id='1528'> +7.5919377e+01 </wgt>
<wgt id='1529'> +7.5789816e+01 </wgt>
<wgt id='1530'> +7.5879398e+01 </wgt>
<wgt id='1531'> +7.5773100e+01 </wgt>
<wgt id='1532'> +7.5744114e+01 </wgt>
<wgt id='1533'> +7.5830912e+01 </wgt>
<wgt id='1534'> +7.5807694e+01 </wgt>
<wgt id='1535'> +7.5876228e+01 </wgt>
<wgt id='1536'> +7.5763548e+01 </wgt>
<wgt id='1537'> +7.5848414e+01 </wgt>
<wgt id='1538'> +7.5834368e+01 </wgt>
<wgt id='1539'> +7.5843368e+01 </wgt>
<wgt id='1540'> +7.5826939e+01 </wgt>
<wgt id='1541'> +7.5789221e+01 </wgt>
<wgt id='1542'> +7.5840746e+01 </wgt>
<wgt id='1543'> +7.5819485e+01 </wgt>
<wgt id='1544'> +7.5842583e+01 </wgt>
<wgt id='1545'> +7.5860847e+01 </wgt>
<wgt id='1546'> +7.5813030e+01 </wgt>
<wgt id='1547'> +7.5853796e+01 </wgt>
<wgt id='1548'> +7.5824958e+01 </wgt>
<wgt id='1549'> +7.5838143e+01 </wgt>
<wgt id='1550'> +7.5873941e+01 </wgt>
<wgt id='1551'> +7.5837848e+01 </wgt>
<wgt id='1552'> +7.5842016e+01 </wgt>
<wgt id='1553'> +7.5849561e+01 </wgt>
<wgt id='1554'> +7.5793368e+01 </wgt>
<wgt id='1555'> +7.5776890e+01 </wgt>
<wgt id='1556'> +7.5792611e+01 </wgt>
<wgt id='1557'> +7.5827427e+01 </wgt>
<wgt id='1558'> +7.5835956e+01 </wgt>
<wgt id='1559'> +7.5832934e+01 </wgt>
<wgt id='1560'> +7.5812555e+01 </wgt>
<wgt id='1561'> +7.5825698e+01 </wgt>
<wgt id='1562'> +7.5836873e+01 </wgt>
<wgt id='1563'> +7.5813768e+01 </wgt>
<wgt id='1564'> +7.5825527e+01 </wgt>
<wgt id='1565'> +7.5824004e+01 </wgt>
<wgt id='1566'> +7.5845713e+01 </wgt>
<wgt id='1567'> +7.5296500e+01 </wgt>
<wgt id='1568'> +7.6241424e+01 </wgt>
<wgt id='1569'> +8.1303060e+01 </wgt>
<wgt id='1570'> +8.1708756e+01 </wgt>
<wgt id='1571'> +8.1321163e+01 </wgt>
<wgt id='1572'> +8.1265116e+01 </wgt>
<wgt id='1573'> +8.1715998e+01 </wgt>
<wgt id='1574'> +8.2268368e+01 </wgt>
<wgt id='1575'> +8.1652901e+01 </wgt>
<wgt id='1576'> +8.1428198e+01 </wgt>
<wgt id='1577'> +8.1224490e+01 </wgt>
<wgt id='1578'> +8.0754248e+01 </wgt>
<wgt id='1579'> +8.1391667e+01 </wgt>
<wgt id='1580'> +8.2089892e+01 </wgt>
<wgt id='1581'> +8.1333242e+01 </wgt>
<wgt id='1582'> +8.1542221e+01 </wgt>
<wgt id='1583'> +8.0699075e+01 </wgt>
<wgt id='1584'> +8.3658981e+01 </wgt>
<wgt id='1585'> +8.0744598e+01 </wgt>
<wgt id='1586'> +8.1347143e+01 </wgt>
<wgt id='1587'> +8.1622259e+01 </wgt>
<wgt id='1588'> +8.0290137e+01 </wgt>
<wgt id='1589'> +8.1374245e+01 </wgt>
<wgt id='1590'> +8.1392058e+01 </wgt>
<wgt id='1591'> +8.0226782e+01 </wgt>
<wgt id='1592'> +8.1481084e+01 </wgt>
<wgt id='1593'> +8.1002491e+01 </wgt>
<wgt id='1594'> +8.1121626e+01 </wgt>
<wgt id='1595'> +8.1027070e+01 </wgt>
<wgt id='1596'> +8.1258372e+01 </wgt>
<wgt id='1597'> +8.1368995e+01 </wgt>
<wgt id='1598'> +8.1033982e+01 </wgt>
<wgt id='1599'> +8.1372225e+01 </wgt>
<wgt id='1600'> +8.1299508e+01 </wgt>
<wgt id='1601'> +8.1563127e+01 </wgt>
<wgt id='1602'> +8.1800935e+01 </wgt>
<wgt id='1603'> +8.1285990e+01 </wgt>
<wgt id='1604'> +8.1810377e+01 </wgt>
<wgt id='1605'> +8.0710000e+01 </wgt>
<wgt id='1606'> +8.1518779e+01 </wgt>
<wgt id='1607'> +8.1348817e+01 </wgt>
<wgt id='1608'> +8.1016007e+01 </wgt>
<wgt id='1609'> +8.1184466e+01 </wgt>
<wgt id='1610'> +8.1128350e+01 </wgt>
<wgt id='1611'> +8.1239210e+01 </wgt>
<wgt id='1612'> +8.1352588e+01 </wgt>
<wgt id='1613'> +8.1595788e+01 </wgt>
<wgt id='1614'> +8.1275922e+01 </wgt>
<wgt id='1615'> +8.1369781e+01 </wgt>
<wgt id='1616'> +8.1327018e+01 </wgt>
<wgt id='1617'> +8.1294175e+01 </wgt>
<wgt id='1618'> +8.1329640e+01 </wgt>
<wgt id='1619'> +8.1239145e+01 </wgt>
<wgt id='1620'> +8.1266203e+01 </wgt>
<wgt id='1621'> +8.1398400e+01 </wgt>
<wgt id='1622'> +8.1273405e+01 </wgt>
<wgt id='1623'> +8.1211277e+01 </wgt>
<wgt id='1624'> +8.1224514e+01 </wgt>
<wgt id='1625'> +8.1571200e+01 </wgt>
<wgt id='1626'> +8.1350131e+01 </wgt>
<wgt id='1627'> +8.1304328e+01 </wgt>
<wgt id='1628'> +8.1229224e+01 </wgt>
<wgt id='1629'> +8.1361634e+01 </wgt>
<wgt id='1630'> +8.1263898e+01 </wgt>
<wgt id='1631'> +8.1405823e+01 </wgt>
<wgt id='1632'> +8.1332550e+01 </wgt>
<wgt id='1633'> +8.1306671e+01 </wgt>
<wgt id='1634'> +8.1300510e+01 </wgt>
<wgt id='1635'> +8.1383303e+01 </wgt>
<wgt id='1636'> +8.1405572e+01 </wgt>
<wgt id='1637'> +8.1374917e+01 </wgt>
<wgt id='1638'> +8.1321016e+01 </wgt>
<wgt id='1639'> +8.1365712e+01 </wgt>
<wgt id='1640'> +8.1321486e+01 </wgt>
<wgt id='1641'> +8.1305623e+01 </wgt>
<wgt id='1642'> +8.1341467e+01 </wgt>
<wgt id='1643'> +8.1361709e+01 </wgt>
<wgt id='1644'> +8.1279104e+01 </wgt>
<wgt id='1645'> +8.1306339e+01 </wgt>
<wgt id='1646'> +8.1255043e+01 </wgt>
<wgt id='1647'> +8.1330659e+01 </wgt>
<wgt id='1648'> +8.1301597e+01 </wgt>
<wgt id='1649'> +8.1315557e+01 </wgt>
<wgt id='1650'> +8.1305151e+01 </wgt>
<wgt id='1651'> +8.1344204e+01 </wgt>
<wgt id='1652'> +8.1329544e+01 </wgt>
<wgt id='1653'> +8.1304776e+01 </wgt>
<wgt id='1654'> +8.1256612e+01 </wgt>
<wgt id='1655'> +8.1283919e+01 </wgt>
<wgt id='1656'> +8.1278234e+01 </wgt>
<wgt id='1657'> +8.1273212e+01 </wgt>
<wgt id='1658'> +8.1320384e+01 </wgt>
<wgt id='1659'> +8.1277860e+01 </wgt>
<wgt id='1660'> +8.1296606e+01 </wgt>
<wgt id='1661'> +8.1310459e+01 </wgt>
<wgt id='1662'> +8.1267760e+01 </wgt>
<wgt id='1663'> +8.1299040e+01 </wgt>
<wgt id='1664'> +8.1305184e+01 </wgt>
<wgt id='1665'> +8.1277415e+01 </wgt>
<wgt id='1666'> +8.1292111e+01 </wgt>
<wgt id='1667'> +8.1299643e+01 </wgt>
<wgt id='1668'> +8.1291100e+01 </wgt>
<wgt id='1669'> +8.1311715e+01 </wgt>
<wgt id='1670'> +8.0399348e+01 </wgt>
<wgt id='1671'> +8.1819500e+01 </wgt>
<wgt id='1672'> +7.5824567e+01 </wgt>
<wgt id='1673'> +7.6044255e+01 </wgt>
<wgt id='1674'> +7.4653103e+01 </wgt>
<wgt id='1675'> +7.5913051e+01 </wgt>
<wgt id='1676'> +7.6674036e+01 </wgt>
<wgt id='1677'> +7.6209008e+01 </wgt>
<wgt id='1678'> +7.6706697e+01 </wgt>
<wgt id='1679'> +7.5968048e+01 </wgt>
<wgt id='1680'> +7.5959048e+01 </wgt>
<wgt id='1681'> +7.6482580e+01 </wgt>
<wgt id='1682'> +7.5904915e+01 </wgt>
<wgt id='1683'> +7.5203158e+01 </wgt>
<wgt id='1684'> +7.5717541e+01 </wgt>
<wgt id='1685'> +7.5853856e+01 </wgt>
<wgt id='1686'> +7.4054709e+01 </wgt>
<wgt id='1687'> +7.6040836e+01 </wgt>
<wgt id='1688'> +7.6015028e+01 </wgt>
<wgt id='1689'> +7.5359416e+01 </wgt>
<wgt id='1690'> +7.5798863e+01 </wgt>
<wgt id='1691'> +7.5916478e+01 </wgt>
<wgt id='1692'> +7.6095762e+01 </wgt>
<wgt id='1693'> +7.5956092e+01 </wgt>
<wgt id='1694'> +7.5752444e+01 </wgt>
<wgt id='1695'> +7.5926124e+01 </wgt>
<wgt id='1696'> +7.5800349e+01 </wgt>
<wgt id='1697'> +7.5937152e+01 </wgt>
<wgt id='1698'> +7.5385035e+01 </wgt>
<wgt id='1699'> +7.6075874e+01 </wgt>
<wgt id='1700'> +7.5775372e+01 </wgt>
<wgt id='1701'> +7.6049919e+01 </wgt>
<wgt id='1702'> +7.5791068e+01 </wgt>
<wgt id='1703'> +7.5296500e+01 </wgt>
<wgt id='1704'> +7.6241424e+01 </wgt>
<wgt id='1705'> +8.1309349e+01 </wgt>
<wgt id='1706'> +8.1806811e+01 </wgt>
<wgt id='1707'> +8.4187066e+01 </wgt>
<wgt id='1708'> +8.1235892e+01 </wgt>
<wgt id='1709'> +8.0610424e+01 </wgt>
<wgt id='1710'> +8.0994069e+01 </wgt>
<wgt id='1711'> +8.1322289e+01 </wgt>
<wgt id='1712'> +8.1325215e+01 </wgt>
<wgt id='1713'> +8.1431595e+01 </wgt>
<wgt id='1714'> +8.0860887e+01 </wgt>
<wgt id='1715'> +8.1486805e+01 </wgt>
<wgt id='1716'> +8.1722690e+01 </wgt>
<wgt id='1717'> +8.1188452e+01 </wgt>
<wgt id='1718'> +8.1232278e+01 </wgt>
<wgt id='1719'> +8.1287486e+01 </wgt>
<wgt id='1720'> +8.1123303e+01 </wgt>
<wgt id='1721'> +8.1387250e+01 </wgt>
<wgt id='1722'> +8.1115776e+01 </wgt>
<wgt id='1723'> +8.1426612e+01 </wgt>
<wgt id='1724'> +8.1624713e+01 </wgt>
<wgt id='1725'> +8.0588006e+01 </wgt>
<wgt id='1726'> +8.0610180e+01 </wgt>
<wgt id='1727'> +8.1489985e+01 </wgt>
<wgt id='1728'> +8.1335908e+01 </wgt>
<wgt id='1729'> +8.1144907e+01 </wgt>
<wgt id='1730'> +8.1167524e+01 </wgt>
<wgt id='1731'> +8.1448616e+01 </wgt>
<wgt id='1732'> +8.1250798e+01 </wgt>
<wgt id='1733'> +8.1016377e+01 </wgt>
<wgt id='1734'> +8.1224662e+01 </wgt>
<wgt id='1735'> +8.1244661e+01 </wgt>
<wgt id='1736'> +8.0399348e+01 </wgt>
<wgt id='1737'> +8.1819500e+01 </wgt>
<wgt id='1738'> +7.8373175e+01 </wgt>
<wgt id='1739'> +7.8557542e+01 </wgt>
<wgt id='1740'> +7.8190085e+01 </wgt>
<wgt id='1741'> +7.8350805e+01 </wgt>
<wgt id='1742'> +7.8395326e+01 </wgt>
<wgt id='1743'> +7.8469761e+01 </wgt>
<wgt id='1744'> +7.8276493e+01 </wgt>
<wgt id='1745'> +7.8084295e+01 </wgt>
<wgt id='1746'> +7.8651066e+01 </wgt>
<wgt id='1747'> +7.8797005e+01 </wgt>
<wgt id='1748'> +7.7929213e+01 </wgt>
<wgt id='1749'> +7.8574205e+01 </wgt>
<wgt id='1750'> +7.8137900e+01 </wgt>
<wgt id='1751'> +7.8349261e+01 </wgt>
<wgt id='1752'> +7.8393360e+01 </wgt>
<wgt id='1753'> +7.8472797e+01 </wgt>
<wgt id='1754'> +7.8320406e+01 </wgt>
<wgt id='1755'> +7.8382489e+01 </wgt>
<wgt id='1756'> +7.8240852e+01 </wgt>
<wgt id='1757'> +7.7833219e+01 </wgt>
<wgt id='1758'> +7.8889909e+01 </wgt>
<wgt id='1759'> +7.7751579e+01 </wgt>
<wgt id='1760'> +7.8881615e+01 </wgt>
<wgt id='1761'> +7.8450867e+01 </wgt>
<wgt id='1762'> +7.7907893e+01 </wgt>
<wgt id='1763'> +7.8645834e+01 </wgt>
<wgt id='1764'> +7.8171397e+01 </wgt>
<wgt id='1765'> +7.8554186e+01 </wgt>
<wgt id='1766'> +7.8218882e+01 </wgt>
<wgt id='1767'> +7.8373175e+01 </wgt>
<wgt id='1768'> +8.1357359e+01 </wgt>
<wgt id='1769'> +7.4997409e+01 </wgt>
<wgt id='1770'> +8.4365917e+01 </wgt>
<wgt id='1771'> +8.0438670e+01 </wgt>
<wgt id='1772'> +7.8679673e+01 </wgt>
<wgt id='1773'> +7.8486462e+01 </wgt>
<wgt id='1774'> +7.8320668e+01 </wgt>
<wgt id='1775'> +7.8404106e+01 </wgt>
<wgt id='1776'> +7.7602494e+01 </wgt>
<wgt id='1777'> +7.9094008e+01 </wgt>
<wgt id='1778'> +7.7893775e+01 </wgt>
<wgt id='1779'> +7.9467596e+01 </wgt>
<wgt id='1780'> +7.5938213e+01 </wgt>
<wgt id='1781'> +8.2319985e+01 </wgt>
<wgt id='1782'> +8.2523708e+01 </wgt>
<wgt id='1783'> +8.2109891e+01 </wgt>
<wgt id='1784'> +8.2233954e+01 </wgt>
<wgt id='1785'> +8.2398493e+01 </wgt>
<wgt id='1786'> +8.2386944e+01 </wgt>
<wgt id='1787'> +8.2245571e+01 </wgt>
<wgt id='1788'> +8.1922120e+01 </wgt>
<wgt id='1789'> +8.2691828e+01 </wgt>
<wgt id='1790'> +8.2705240e+01 </wgt>
<wgt id='1791'> +8.1920067e+01 </wgt>
<wgt id='1792'> +8.2602849e+01 </wgt>
<wgt id='1793'> +8.2014654e+01 </wgt>
<wgt id='1794'> +8.2107510e+01 </wgt>
<wgt id='1795'> +8.2528819e+01 </wgt>
<wgt id='1796'> +8.2313545e+01 </wgt>
<wgt id='1797'> +8.2426783e+01 </wgt>
<wgt id='1798'> +8.2221924e+01 </wgt>
<wgt id='1799'> +8.2386974e+01 </wgt>
<wgt id='1800'> +8.2010082e+01 </wgt>
<wgt id='1801'> +8.2564653e+01 </wgt>
<wgt id='1802'> +8.2302103e+01 </wgt>
<wgt id='1803'> +8.2218902e+01 </wgt>
<wgt id='1804'> +8.2981581e+01 </wgt>
<wgt id='1805'> +8.1659944e+01 </wgt>
<wgt id='1806'> +8.3363650e+01 </wgt>
<wgt id='1807'> +8.1167848e+01 </wgt>
<wgt id='1808'> +8.3300405e+01 </wgt>
<wgt id='1809'> +8.1422753e+01 </wgt>
<wgt id='1810'> +8.2319081e+01 </wgt>
<wgt id='1811'> +8.5769244e+01 </wgt>
<wgt id='1812'> +7.8216743e+01 </wgt>
<wgt id='1813'> +8.8773585e+01 </wgt>
<wgt id='1814'> +8.3860223e+01 </wgt>
<wgt id='1815'> +8.4294215e+01 </wgt>
<wgt id='1816'> +8.1844775e+01 </wgt>
<wgt id='1817'> +8.2197396e+01 </wgt>
<wgt id='1818'> +8.2135637e+01 </wgt>
<wgt id='1819'> +8.1743900e+01 </wgt>
<wgt id='1820'> +8.4868217e+01 </wgt>
<wgt id='1821'> +8.2546566e+01 </wgt>
<wgt id='1822'> +8.2135033e+01 </wgt>
<wgt id='1823'> +8.1111837e+01 </wgt>
<wgt id='1824'> +7.5421539e+01 </wgt>
<wgt id='1825'> +7.5389046e+01 </wgt>
<wgt id='1826'> +7.5357039e+01 </wgt>
<wgt id='1827'> +7.5324934e+01 </wgt>
<wgt id='1828'> +7.5292510e+01 </wgt>
<wgt id='1829'> +7.5260452e+01 </wgt>
<wgt id='1830'> +7.5228178e+01 </wgt>
<wgt id='1831'> +7.5196077e+01 </wgt>
<wgt id='1832'> +7.5164031e+01 </wgt>
<wgt id='1833'> +7.5131643e+01 </wgt>
<wgt id='1834'> +7.5099639e+01 </wgt>
<wgt id='1835'> +7.5067222e+01 </wgt>
<wgt id='1836'> +7.5035297e+01 </wgt>
<wgt id='1837'> +7.5003297e+01 </wgt>
<wgt id='1838'> +7.4970921e+01 </wgt>
<wgt id='1839'> +7.4938984e+01 </wgt>
<wgt id='1840'> +7.4906632e+01 </wgt>
<wgt id='1841'> +7.4874597e+01 </wgt>
<wgt id='1842'> +7.4842627e+01 </wgt>
<wgt id='1843'> +7.4810647e+01 </wgt>
<wgt id='1844'> +7.4778513e+01 </wgt>
<wgt id='1845'> +7.4746454e+01 </wgt>
<wgt id='1846'> +7.4714453e+01 </wgt>
<wgt id='1847'> +7.4682307e+01 </wgt>
<wgt id='1848'> +7.4650118e+01 </wgt>
<wgt id='1849'> +7.4618244e+01 </wgt>
<wgt id='1850'> +7.4586133e+01 </wgt>
<wgt id='1851'> +7.4554077e+01 </wgt>
<wgt id='1852'> +7.4522257e+01 </wgt>
<wgt id='1853'> +7.4489988e+01 </wgt>
<wgt id='1854'> +7.4458094e+01 </wgt>
<wgt id='1855'> +8.1024751e+01 </wgt>
<wgt id='1856'> +8.1400875e+01 </wgt>
<wgt id='1857'> +8.1035374e+01 </wgt>
<wgt id='1858'> +8.0988432e+01 </wgt>
<wgt id='1859'> +8.1429828e+01 </wgt>
<wgt id='1860'> +8.1984511e+01 </wgt>
<wgt id='1861'> +8.1394482e+01 </wgt>
<wgt id='1862'> +8.1170383e+01 </wgt>
<wgt id='1863'> +8.0947995e+01 </wgt>
<wgt id='1864'> +8.0479486e+01 </wgt>
<wgt id='1865'> +8.1107162e+01 </wgt>
<wgt id='1866'> +8.1838156e+01 </wgt>
<wgt id='1867'> +8.1069334e+01 </wgt>
<wgt id='1868'> +8.1275033e+01 </wgt>
<wgt id='1869'> +8.0419280e+01 </wgt>
<wgt id='1870'> +8.3336698e+01 </wgt>
<wgt id='1871'> +8.0496286e+01 </wgt>
<wgt id='1872'> +8.1056419e+01 </wgt>
<wgt id='1873'> +8.1335600e+01 </wgt>
<wgt id='1874'> +8.0032140e+01 </wgt>
<wgt id='1875'> +8.1116270e+01 </wgt>
<wgt id='1876'> +8.1103615e+01 </wgt>
<wgt id='1877'> +7.9944984e+01 </wgt>
<wgt id='1878'> +8.1211547e+01 </wgt>
<wgt id='1879'> +8.0711686e+01 </wgt>
<wgt id='1880'> +8.0821938e+01 </wgt>
<wgt id='1881'> +8.0729079e+01 </wgt>
<wgt id='1882'> +8.1004238e+01 </wgt>
<wgt id='1883'> +8.1100241e+01 </wgt>
<wgt id='1884'> +8.0745027e+01 </wgt>
<wgt id='1885'> +8.1083081e+01 </wgt>
<wgt id='1886'> +8.1045053e+01 </wgt>
<wgt id='1887'> +8.1274807e+01 </wgt>
<wgt id='1888'> +8.1513379e+01 </wgt>
<wgt id='1889'> +8.1007518e+01 </wgt>
<wgt id='1890'> +8.1524901e+01 </wgt>
<wgt id='1891'> +8.0435986e+01 </wgt>
<wgt id='1892'> +8.1241673e+01 </wgt>
<wgt id='1893'> +8.1069235e+01 </wgt>
<wgt id='1894'> +8.0729357e+01 </wgt>
<wgt id='1895'> +8.0907927e+01 </wgt>
<wgt id='1896'> +8.0844858e+01 </wgt>
<wgt id='1897'> +8.0957541e+01 </wgt>
<wgt id='1898'> +8.1086543e+01 </wgt>
<wgt id='1899'> +8.1313890e+01 </wgt>
<wgt id='1900'> +8.0995983e+01 </wgt>
<wgt id='1901'> +8.1098054e+01 </wgt>
<wgt id='1902'> +8.1043929e+01 </wgt>
<wgt id='1903'> +8.1019315e+01 </wgt>
<wgt id='1904'> +8.1049833e+01 </wgt>
<wgt id='1905'> +8.0961988e+01 </wgt>
<wgt id='1906'> +8.0985289e+01 </wgt>
<wgt id='1907'> +8.1119367e+01 </wgt>
<wgt id='1908'> +8.0995012e+01 </wgt>
<wgt id='1909'> +8.0936546e+01 </wgt>
<wgt id='1910'> +8.0948928e+01 </wgt>
<wgt id='1911'> +8.1284298e+01 </wgt>
<wgt id='1912'> +8.1072424e+01 </wgt>
<wgt id='1913'> +8.1032747e+01 </wgt>
<wgt id='1914'> +8.0955795e+01 </wgt>
<wgt id='1915'> +8.1087675e+01 </wgt>
<wgt id='1916'> +8.0987299e+01 </wgt>
<wgt id='1917'> +8.1124182e+01 </wgt>
<wgt id='1918'> +8.1050641e+01 </wgt>
<wgt id='1919'> +8.1031314e+01 </wgt>
<wgt id='1920'> +8.1020380e+01 </wgt>
<wgt id='1921'> +8.1103706e+01 </wgt>
<wgt id='1922'> +8.1123478e+01 </wgt>
<wgt id='1923'> +8.1097540e+01 </wgt>
<wgt id='1924'> +8.1039168e+01 </wgt>
<wgt id='1925'> +8.1085593e+01 </wgt>
<wgt id='1926'> +8.1044975e+01 </wgt>
<wgt id='1927'> +8.1024856e+01 </wgt>
<wgt id='1928'> +8.1060668e+01 </wgt>
<wgt id='1929'> +8.1083451e+01 </wgt>
<wgt id='1930'> +8.1002044e+01 </wgt>
<wgt id='1931'> +8.1032714e+01 </wgt>
<wgt id='1932'> +8.0977277e+01 </wgt>
<wgt id='1933'> +8.1055191e+01 </wgt>
<wgt id='1934'> +8.1023879e+01 </wgt>
<wgt id='1935'> +8.1033758e+01 </wgt>
<wgt id='1936'> +8.1031327e+01 </wgt>
<wgt id='1937'> +8.1067066e+01 </wgt>
<wgt id='1938'> +8.1051130e+01 </wgt>
<wgt id='1939'> +8.1024980e+01 </wgt>
<wgt id='1940'> +8.0979330e+01 </wgt>
<wgt id='1941'> +8.1010528e+01 </wgt>
<wgt id='1942'> +8.0998421e+01 </wgt>
<wgt id='1943'> +8.0992822e+01 </wgt>
<wgt id='1944'> +8.1039197e+01 </wgt>
<wgt id='1945'> +8.0998605e+01 </wgt>
<wgt id='1946'> +8.1015741e+01 </wgt>
<wgt id='1947'> +8.1029803e+01 </wgt>
<wgt id='1948'> +8.0991357e+01 </wgt>
<wgt id='1949'> +8.1016990e+01 </wgt>
<wgt id='1950'> +8.1026092e+01 </wgt>
<wgt id='1951'> +8.1000623e+01 </wgt>
<wgt id='1952'> +8.1014434e+01 </wgt>
<wgt id='1953'> +8.1020114e+01 </wgt>
<wgt id='1954'> +8.1014550e+01 </wgt>
<wgt id='1955'> +8.1034168e+01 </wgt>
<wgt id='1956'> +8.1024547e+01 </wgt>
<wgt id='1957'> +8.1025838e+01 </wgt>
<wgt id='1958'> +8.1024955e+01 </wgt>
<wgt id='1959'> +8.1025001e+01 </wgt>
<wgt id='1960'> +8.1025363e+01 </wgt>
<wgt id='1961'> +8.1024839e+01 </wgt>
<wgt id='1962'> +8.1026033e+01 </wgt>
</rwgt>
</event>
<event npLO=" -1 " npNLO=" 1 ">
 8      1 +1.5146096e+02 9.03172500e+00 7.54677110e-03 1.95590700e-01
       -1 -1    0    0    0  501 +0.0000000000e+00 +0.0000000000e+00 +1.5468023000e+01 1.5468023000e+01 0.0000000000e+00 0.0000e+00 9.0000e+00
        1 -1    0    0  503    0 +0.0000000000e+00 +0.0000000000e+00 -5.3463097000e+02 5.3463097000e+02 0.0000000000e+00 0.0000e+00 9.0000e+00
       23  2    1    2    0    0 -3.0608780000e-01 -2.8720323000e+00 -1.2351994000e+02 1.5303780000e+02 9.0305320000e+01 0.0000e+00 0.0000e+00
       13  1    3    3    0    0 -2.0311276000e-01 -1.5974967000e+01 -4.3080871000e+01 4.5947821000e+01 0.0000000000e+00 0.0000e+00 9.0000e+00
      -13  1    3    3    0    0 -2.4199870000e+01 +2.6055066000e+01 -2.0120599000e+01 4.0857541000e+01 0.0000000000e+00 0.0000e+00 9.0000e+00
       22  1    3    3    0    0 +2.4096895000e+01 -1.2952131000e+01 -6.0318472000e+01 6.6232440000e+01 0.0000000000e+00 0.0000e+00 9.0000e+00
       21  1    1    2  502  501 -1.2293031000e+01 -7.2663604000e+00 -1.0473258000e+02 1.0570162000e+02 0.0000000000e+00 0.0000e+00 9.0000e+00
       21  1    1    2  503  502 +1.2599119000e+01 +1.0138393000e+01 -2.9091042000e+02 2.9135956000e+02 0.0000000000e+00 0.0000e+00 9.0000e+00
#aMCatNLO 2  0  0  2  2 0.27479684E+02 0.00000000E+00 -9  7  0 0.00000000E+00 0.00000000E+00 0.00000000E+00 0.00000000E+00 0.00000000E+00
<rwgt>
<wgt id='1001'> +1.5146000e+02 </wgt>
<wgt id='1002'> +1.5146000e+02 </wgt>
<wgt id='1003'> +1.4741000e+02 </wgt>
<wgt id='1004'> +1.5312000e+02 </wgt>
<wgt id='1005'> +1.5489000e+02 </wgt>
<wgt id='1006'> +1.5923000e+02 </wgt>
<wgt id='1007'> +1.3693000e+02 </wgt>
<wgt id='1008'> +1.4612000e+02 </wgt>
<wgt id='1009'> +1.5552000e+02 </wgt>
<wgt id='1010'> +1.5354000e+02 </wgt>
<wgt id='1011'> +1.5156000e+02 </wgt>
<wgt id='1012'> +1.5055000e+02 </wgt>
<wgt id='1013'> +1.5233000e+02 </wgt>
<wgt id='1014'> +1.4687000e+02 </wgt>
<wgt id='1015'> +1.5625000e+02 </wgt>
<wgt id='1016'> +1.4935000e+02 </wgt>
<wgt id='1017'> +1.5217000e+02 </wgt>
<wgt id='1018'> +1.4619000e+02 </wgt>
<wgt id='1019'> +1.4525000e+02 </wgt>
<wgt id='1020'> +1.3817000e+02 </wgt>
<wgt id='1021'> +1.5328000e+02 </wgt>
<wgt id='1022'> +1.5501000e+02 </wgt>
<wgt id='1023'> +1.6133000e+02 </wgt>
<wgt id='1024'> +1.5813000e+02 </wgt>
<wgt id='1025'> +1.5525000e+02 </wgt>
<wgt id='1026'> +1.4971000e+02 </wgt>
<wgt id='1027'> +1.4964000e+02 </wgt>
<wgt id='1028'> +1.5347000e+02 </wgt>
<wgt id='1029'> +1.4673000e+02 </wgt>
<wgt id='1030'> +1.4711000e+02 </wgt>
<wgt id='1031'> +1.5190000e+02 </wgt>
<wgt id='1032'> +1.5251000e+02 </wgt>
<wgt id='1033'> +1.5628000e+02 </wgt>
<wgt id='1034'> +1.5218000e+02 </wgt>
<wgt id='1035'> +1.5723000e+02 </wgt>
<wgt id='1036'> +1.4807000e+02 </wgt>
<wgt id='1037'> +1.5642000e+02 </wgt>
<wgt id='1038'> +1.4792000e+02 </wgt>
<wgt id='1039'> +1.4762000e+02 </wgt>
<wgt id='1040'> +1.4915000e+02 </wgt>
<wgt id='1041'> +1.5179000e+02 </wgt>
<wgt id='1042'> +1.5362000e+02 </wgt>
<wgt id='1043'> +1.5903000e+02 </wgt>
<wgt id='1044'> +1.5319000e+02 </wgt>
<wgt id='1045'> +1.5292000e+02 </wgt>
<wgt id='1046'> +1.5185000e+02 </wgt>
<wgt id='1047'> +1.5584000e+02 </wgt>
<wgt id='1048'> +1.4897000e+02 </wgt>
<wgt id='1049'> +1.5132000e+02 </wgt>
<wgt id='1050'> +1.4978000e+02 </wgt>
<wgt id='1051'> +1.4843000e+02 </wgt>
<wgt id='1052'> +1.5556000e+02 </wgt>
<wgt id='1053'> +1.5597000e+02 </wgt>
<wgt id='1054'> +1.5270000e+02 </wgt>
<wgt id='1055'> +1.4387000e+02 </wgt>
<wgt id='1056'> +1.5522000e+02 </wgt>
<wgt id='1057'> +1.5294000e+02 </wgt>
<wgt id='1058'> +1.4523000e+02 </wgt>
<wgt id='1059'> +1.5272000e+02 </wgt>
<wgt id='1060'> +1.5478000e+02 </wgt>
<wgt id='1061'> +1.5081000e+02 </wgt>
<wgt id='1062'> +1.5694000e+02 </wgt>
<wgt id='1063'> +1.5224000e+02 </wgt>
<wgt id='1064'> +1.5149000e+02 </wgt>
<wgt id='1065'> +1.3926000e+02 </wgt>
<wgt id='1066'> +1.4307000e+02 </wgt>
<wgt id='1067'> +1.5363000e+02 </wgt>
<wgt id='1068'> +1.5004000e+02 </wgt>
<wgt id='1069'> +1.6610000e+02 </wgt>
<wgt id='1070'> +1.5452000e+02 </wgt>
<wgt id='1071'> +1.4905000e+02 </wgt>
<wgt id='1072'> +1.5199000e+02 </wgt>
<wgt id='1073'> +1.5288000e+02 </wgt>
<wgt id='1074'> +1.4384000e+02 </wgt>
<wgt id='1075'> +1.4689000e+02 </wgt>
<wgt id='1076'> +1.4950000e+02 </wgt>
<wgt id='1077'> +1.5166000e+02 </wgt>
<wgt id='1078'> +1.4557000e+02 </wgt>
<wgt id='1079'> +1.4848000e+02 </wgt>
<wgt id='1080'> +1.5592000e+02 </wgt>
<wgt id='1081'> +1.5131000e+02 </wgt>
<wgt id='1082'> +1.5636000e+02 </wgt>
<wgt id='1083'> +1.5622000e+02 </wgt>
<wgt id='1084'> +1.5502000e+02 </wgt>
<wgt id='1085'> +1.5123000e+02 </wgt>
<wgt id='1086'> +1.5143000e+02 </wgt>
<wgt id='1087'> +1.5213000e+02 </wgt>
<wgt id='1088'> +1.4947000e+02 </wgt>
<wgt id='1089'> +1.5606000e+02 </wgt>
<wgt id='1090'> +1.5621000e+02 </wgt>
<wgt id='1091'> +1.4522000e+02 </wgt>
<wgt id='1092'> +1.5196000e+02 </wgt>
<wgt id='1093'> +1.5659000e+02 </wgt>
<wgt id='1094'> +1.5194000e+02 </wgt>
<wgt id='1095'> +1.4929000e+02 </wgt>
<wgt id='1096'> +1.5338000e+02 </wgt>
<wgt id='1097'> +1.4491000e+02 </wgt>
<wgt id='1098'> +1.5124000e+02 </wgt>
<wgt id='1099'> +1.4923000e+02 </wgt>
<wgt id='1100'> +1.5369000e+02 </wgt>
<wgt id='1101'> +1.5462000e+02 </wgt>
<wgt id='1102'> +1.4491000e+02 </wgt>
<wgt id='1103'> +1.4748000e+02 </wgt>
<wgt id='1104'> +1.5678000e+02 </wgt>
<wgt id='1105'> +1.5146096e+02 </wgt>
<wgt id='1106'> +5.4730560e+01 </wgt>
<wgt id='1107'> +1.1384869e+02 </wgt>
<wgt id='1108'> +8.1800896e+01 </wgt>
<wgt id='1109'> +5.9117661e+01 </wgt>
<wgt id='1110'> +1.2297460e+02 </wgt>
<wgt id='1111'> +6.8579841e+01 </wgt>
<wgt id='1112'> +4.9562780e+01 </wgt>
<wgt id='1113'> +1.0309885e+02 </wgt>
<wgt id='1114'> +8.2256658e+01 </wgt>
<wgt id='1115'> +8.5852233e+01 </wgt>
<wgt id='1116'> +8.4186947e+01 </wgt>
<wgt id='1117'> +7.5852434e+01 </wgt>
<wgt id='1118'> +8.1560286e+01 </wgt>
<wgt id='1119'> +8.3308604e+01 </wgt>
<wgt id='1120'> +8.5046845e+01 </wgt>
<wgt id='1121'> +8.4774711e+01 </wgt>
<wgt id='1122'> +7.9756785e+01 </wgt>
<wgt id='1123'> +8.3355823e+01 </wgt>
<wgt id='1124'> +7.8000135e+01 </wgt>
<wgt id='1125'> +8.0077178e+01 </wgt>
<wgt id='1126'> +8.1847598e+01 </wgt>
<wgt id='1127'> +8.1023336e+01 </wgt>
<wgt id='1128'> +7.9925846e+01 </wgt>
<wgt id='1129'> +8.3800570e+01 </wgt>
<wgt id='1130'> +8.2388833e+01 </wgt>
<wgt id='1131'> +8.4919967e+01 </wgt>
<wgt id='1132'> +8.3924855e+01 </wgt>
<wgt id='1133'> +8.2993407e+01 </wgt>
<wgt id='1134'> +8.0273176e+01 </wgt>
<wgt id='1135'> +8.2817810e+01 </wgt>
<wgt id='1136'> +8.4263502e+01 </wgt>
<wgt id='1137'> +8.5316862e+01 </wgt>
<wgt id='1138'> +8.1622725e+01 </wgt>
<wgt id='1139'> +8.3816858e+01 </wgt>
<wgt id='1140'> +8.0279051e+01 </wgt>
<wgt id='1141'> +8.3968588e+01 </wgt>
<wgt id='1142'> +8.4256636e+01 </wgt>
<wgt id='1143'> +8.2000526e+01 </wgt>
<wgt id='1144'> +8.6287172e+01 </wgt>
<wgt id='1145'> +8.2607152e+01 </wgt>
<wgt id='1146'> +8.3557113e+01 </wgt>
<wgt id='1147'> +8.6093729e+01 </wgt>
<wgt id='1148'> +8.0407232e+01 </wgt>
<wgt id='1149'> +8.0653723e+01 </wgt>
<wgt id='1150'> +8.2114471e+01 </wgt>
<wgt id='1151'> +8.2172149e+01 </wgt>
<wgt id='1152'> +8.1482990e+01 </wgt>
<wgt id='1153'> +8.0604371e+01 </wgt>
<wgt id='1154'> +7.8294740e+01 </wgt>
<wgt id='1155'> +8.3330804e+01 </wgt>
<wgt id='1156'> +8.4485708e+01 </wgt>
<wgt id='1157'> +8.4443891e+01 </wgt>
<wgt id='1158'> +8.4080994e+01 </wgt>
<wgt id='1159'> +8.2002226e+01 </wgt>
<wgt id='1160'> +8.1066164e+01 </wgt>
<wgt id='1161'> +8.3844527e+01 </wgt>
<wgt id='1162'> +7.9963168e+01 </wgt>
<wgt id='1163'> +8.5682476e+01 </wgt>
<wgt id='1164'> +8.1629390e+01 </wgt>
<wgt id='1165'> +8.0464914e+01 </wgt>
<wgt id='1166'> +8.3744939e+01 </wgt>
<wgt id='1167'> +8.3477865e+01 </wgt>
<wgt id='1168'> +8.4604988e+01 </wgt>
<wgt id='1169'> +7.8381869e+01 </wgt>
<wgt id='1170'> +8.3973456e+01 </wgt>
<wgt id='1171'> +8.4799985e+01 </wgt>
<wgt id='1172'> +8.5203708e+01 </wgt>
<wgt id='1173'> +8.3310915e+01 </wgt>
<wgt id='1174'> +8.2155925e+01 </wgt>
<wgt id='1175'> +8.2643208e+01 </wgt>
<wgt id='1176'> +8.2812585e+01 </wgt>
<wgt id='1177'> +7.9188411e+01 </wgt>
<wgt id='1178'> +7.8141283e+01 </wgt>
<wgt id='1179'> +8.4614595e+01 </wgt>
<wgt id='1180'> +8.2908372e+01 </wgt>
<wgt id='1181'> +7.9603423e+01 </wgt>
<wgt id='1182'> +8.3933370e+01 </wgt>
<wgt id='1183'> +8.2925737e+01 </wgt>
<wgt id='1184'> +8.1910711e+01 </wgt>
<wgt id='1185'> +8.3812699e+01 </wgt>
<wgt id='1186'> +8.1657437e+01 </wgt>
<wgt id='1187'> +8.0177656e+01 </wgt>
<wgt id='1188'> +7.8245713e+01 </wgt>
<wgt id='1189'> +8.1342212e+01 </wgt>
<wgt id='1190'> +8.1511141e+01 </wgt>
<wgt id='1191'> +8.0303264e+01 </wgt>
<wgt id='1192'> +8.5749371e+01 </wgt>
<wgt id='1193'> +8.2007792e+01 </wgt>
<wgt id='1194'> +8.0284218e+01 </wgt>
<wgt id='1195'> +8.2905443e+01 </wgt>
<wgt id='1196'> +8.2388833e+01 </wgt>
<wgt id='1197'> +7.6796336e+01 </wgt>
<wgt id='1198'> +8.1649073e+01 </wgt>
<wgt id='1199'> +8.1779768e+01 </wgt>
<wgt id='1200'> +8.7937185e+01 </wgt>
<wgt id='1201'> +8.2941341e+01 </wgt>
<wgt id='1202'> +8.3206366e+01 </wgt>
<wgt id='1203'> +7.2515330e+01 </wgt>
<wgt id='1204'> +8.2409801e+01 </wgt>
<wgt id='1205'> +8.4032478e+01 </wgt>
<wgt id='1206'> +8.0001608e+01 </wgt>
<wgt id='1207'> +8.2530296e+01 </wgt>
<wgt id='1208'> +8.4073004e+01 </wgt>
<wgt id='1209'> +8.2487202e+01 </wgt>
<wgt id='1210'> +8.4657342e+01 </wgt>
<wgt id='1211'> +8.0840606e+01 </wgt>
<wgt id='1212'> +8.0589798e+01 </wgt>
<wgt id='1213'> +7.8852109e+01 </wgt>
<wgt id='1214'> +8.3912617e+01 </wgt>
<wgt id='1215'> +8.0322730e+01 </wgt>
<wgt id='1216'> +8.0128175e+01 </wgt>
<wgt id='1217'> +8.0136678e+01 </wgt>
<wgt id='1218'> +8.0228677e+01 </wgt>
<wgt id='1219'> +8.0112110e+01 </wgt>
<wgt id='1220'> +8.0451634e+01 </wgt>
<wgt id='1221'> +8.0334329e+01 </wgt>
<wgt id='1222'> +7.9830784e+01 </wgt>
<wgt id='1223'> +8.0568585e+01 </wgt>
<wgt id='1224'> +8.0679632e+01 </wgt>
<wgt id='1225'> +8.0549944e+01 </wgt>
<wgt id='1226'> +7.9858709e+01 </wgt>
<wgt id='1227'> +7.9842046e+01 </wgt>
<wgt id='1228'> +8.0149320e+01 </wgt>
<wgt id='1229'> +8.0611181e+01 </wgt>
<wgt id='1230'> +8.0014200e+01 </wgt>
<wgt id='1231'> +7.9989366e+01 </wgt>
<wgt id='1232'> +8.0846277e+01 </wgt>
<wgt id='1233'> +7.9881119e+01 </wgt>
<wgt id='1234'> +8.0334377e+01 </wgt>
<wgt id='1235'> +8.0182398e+01 </wgt>
<wgt id='1236'> +8.0011709e+01 </wgt>
<wgt id='1237'> +8.0446299e+01 </wgt>
<wgt id='1238'> +7.9961050e+01 </wgt>
<wgt id='1239'> +7.9608029e+01 </wgt>
<wgt id='1240'> +8.0833289e+01 </wgt>
<wgt id='1241'> +8.0021649e+01 </wgt>
<wgt id='1242'> +8.0336882e+01 </wgt>
<wgt id='1243'> +7.9758536e+01 </wgt>
<wgt id='1244'> +8.0446026e+01 </wgt>
<wgt id='1245'> +8.0656906e+01 </wgt>
<wgt id='1246'> +7.8901758e+01 </wgt>
<wgt id='1247'> +7.9903293e+01 </wgt>
<wgt id='1248'> +8.0428746e+01 </wgt>
<wgt id='1249'> +8.0042646e+01 </wgt>
<wgt id='1250'> +8.0078409e+01 </wgt>
<wgt id='1251'> +8.0451822e+01 </wgt>
<wgt id='1252'> +8.0164338e+01 </wgt>
<wgt id='1253'> +7.9909805e+01 </wgt>
<wgt id='1254'> +8.0241437e+01 </wgt>
<wgt id='1255'> +8.0194946e+01 </wgt>
<wgt id='1256'> +8.0009291e+01 </wgt>
<wgt id='1257'> +8.0418316e+01 </wgt>
<wgt id='1258'> +7.9845188e+01 </wgt>
<wgt id='1259'> +8.0124570e+01 </wgt>
<wgt id='1260'> +8.0204755e+01 </wgt>
<wgt id='1261'> +8.0102054e+01 </wgt>
<wgt id='1262'> +8.0326635e+01 </wgt>
<wgt id='1263'> +8.0330244e+01 </wgt>
<wgt id='1264'> +8.0148707e+01 </wgt>
<wgt id='1265'> +7.9871529e+01 </wgt>
<wgt id='1266'> +8.0191834e+01 </wgt>
<wgt id='1267'> +8.0311952e+01 </wgt>
<wgt id='1268'> +8.0042720e+01 </wgt>
<wgt id='1269'> +7.9926925e+01 </wgt>
<wgt id='1270'> +7.9989200e+01 </wgt>
<wgt id='1271'> +8.0138854e+01 </wgt>
<wgt id='1272'> +7.9806009e+01 </wgt>
<wgt id='1273'> +8.0173533e+01 </wgt>
<wgt id='1274'> +8.0044911e+01 </wgt>
<wgt id='1275'> +8.0289933e+01 </wgt>
<wgt id='1276'> +8.0123354e+01 </wgt>
<wgt id='1277'> +8.0120636e+01 </wgt>
<wgt id='1278'> +8.0087515e+01 </wgt>
<wgt id='1279'> +8.0130760e+01 </wgt>
<wgt id='1280'> +8.0024415e+01 </wgt>
<wgt id='1281'> +8.0123705e+01 </wgt>
<wgt id='1282'> +8.0273273e+01 </wgt>
<wgt id='1283'> +8.0087480e+01 </wgt>
<wgt id='1284'> +8.0153847e+01 </wgt>
<wgt id='1285'> +8.0165454e+01 </wgt>
<wgt id='1286'> +8.0002424e+01 </wgt>
<wgt id='1287'> +8.0074007e+01 </wgt>
<wgt id='1288'> +8.0072226e+01 </wgt>
<wgt id='1289'> +8.0093303e+01 </wgt>
<wgt id='1290'> +8.0148213e+01 </wgt>
<wgt id='1291'> +8.0174057e+01 </wgt>
<wgt id='1292'> +8.0176149e+01 </wgt>
<wgt id='1293'> +8.0070235e+01 </wgt>
<wgt id='1294'> +8.0103128e+01 </wgt>
<wgt id='1295'> +8.0094042e+01 </wgt>
<wgt id='1296'> +8.0156642e+01 </wgt>
<wgt id='1297'> +7.9958573e+01 </wgt>
<wgt id='1298'> +8.0104322e+01 </wgt>
<wgt id='1299'> +8.0091472e+01 </wgt>
<wgt id='1300'> +8.0230993e+01 </wgt>
<wgt id='1301'> +8.0075746e+01 </wgt>
<wgt id='1302'> +8.0111013e+01 </wgt>
<wgt id='1303'> +8.0134846e+01 </wgt>
<wgt id='1304'> +8.0075381e+01 </wgt>
<wgt id='1305'> +8.0125644e+01 </wgt>
<wgt id='1306'> +8.0174779e+01 </wgt>
<wgt id='1307'> +8.0152870e+01 </wgt>
<wgt id='1308'> +8.0106667e+01 </wgt>
<wgt id='1309'> +8.0122282e+01 </wgt>
<wgt id='1310'> +8.0094038e+01 </wgt>
<wgt id='1311'> +8.0147993e+01 </wgt>
<wgt id='1312'> +8.0149716e+01 </wgt>
<wgt id='1313'> +8.0031701e+01 </wgt>
<wgt id='1314'> +8.0105020e+01 </wgt>
<wgt id='1315'> +8.0188609e+01 </wgt>
<wgt id='1316'> +8.0208301e+01 </wgt>
<wgt id='1317'> +7.5364623e+01 </wgt>
<wgt id='1318'> +8.5168477e+01 </wgt>
<wgt id='1319'> +8.0008654e+01 </wgt>
<wgt id='1320'> +7.5762348e+01 </wgt>
<wgt id='1321'> +7.8189639e+01 </wgt>
<wgt id='1322'> +7.4219584e+01 </wgt>
<wgt id='1323'> +7.6360418e+01 </wgt>
<wgt id='1324'> +7.6213600e+01 </wgt>
<wgt id='1325'> +7.7561831e+01 </wgt>
<wgt id='1326'> +7.4931553e+01 </wgt>
<wgt id='1327'> +7.7325730e+01 </wgt>
<wgt id='1328'> +7.4935554e+01 </wgt>
<wgt id='1329'> +7.6007156e+01 </wgt>
<wgt id='1330'> +7.4651357e+01 </wgt>
<wgt id='1331'> +7.4479619e+01 </wgt>
<wgt id='1332'> +7.7011812e+01 </wgt>
<wgt id='1333'> +7.3428423e+01 </wgt>
<wgt id='1334'> +7.6832105e+01 </wgt>
<wgt id='1335'> +7.6698365e+01 </wgt>
<wgt id='1336'> +7.4057786e+01 </wgt>
<wgt id='1337'> +7.8329199e+01 </wgt>
<wgt id='1338'> +7.2894522e+01 </wgt>
<wgt id='1339'> +7.6159732e+01 </wgt>
<wgt id='1340'> +7.5326308e+01 </wgt>
<wgt id='1341'> +7.5862876e+01 </wgt>
<wgt id='1342'> +7.5554668e+01 </wgt>
<wgt id='1343'> +7.6978217e+01 </wgt>
<wgt id='1344'> +7.4782703e+01 </wgt>
<wgt id='1345'> +7.6401540e+01 </wgt>
<wgt id='1346'> +7.5335766e+01 </wgt>
<wgt id='1347'> +7.5467404e+01 </wgt>
<wgt id='1348'> +7.6225838e+01 </wgt>
<wgt id='1349'> +7.5261805e+01 </wgt>
<wgt id='1350'> +7.5926173e+01 </wgt>
<wgt id='1351'> +7.5485887e+01 </wgt>
<wgt id='1352'> +7.6109798e+01 </wgt>
<wgt id='1353'> +7.4920128e+01 </wgt>
<wgt id='1354'> +7.7617651e+01 </wgt>
<wgt id='1355'> +7.8525555e+01 </wgt>
<wgt id='1356'> +7.3247883e+01 </wgt>
<wgt id='1357'> +7.5776080e+01 </wgt>
<wgt id='1358'> +7.5299429e+01 </wgt>
<wgt id='1359'> +7.4797062e+01 </wgt>
<wgt id='1360'> +7.5948724e+01 </wgt>
<wgt id='1361'> +7.6156575e+01 </wgt>
<wgt id='1362'> +7.6151834e+01 </wgt>
<wgt id='1363'> +7.5052963e+01 </wgt>
<wgt id='1364'> +7.5879938e+01 </wgt>
<wgt id='1365'> +7.5966847e+01 </wgt>
<wgt id='1366'> +7.5273566e+01 </wgt>
<wgt id='1367'> +7.4646938e+01 </wgt>
<wgt id='1368'> +7.7056744e+01 </wgt>
<wgt id='1369'> +7.5293891e+01 </wgt>
<wgt id='1370'> +7.6883086e+01 </wgt>
<wgt id='1371'> +7.5076239e+01 </wgt>
<wgt id='1372'> +7.4546799e+01 </wgt>
<wgt id='1373'> +7.4556169e+01 </wgt>
<wgt id='1374'> +7.5043106e+01 </wgt>
<wgt id='1375'> +7.5412257e+01 </wgt>
<wgt id='1376'> +7.6241412e+01 </wgt>
<wgt id='1377'> +7.0803490e+01 </wgt>
<wgt id='1378'> +8.0880737e+01 </wgt>
<wgt id='1379'> +7.9029873e+01 </wgt>
<wgt id='1380'> +7.3715271e+01 </wgt>
<wgt id='1381'> +8.4683075e+01 </wgt>
<wgt id='1382'> +6.5101585e+01 </wgt>
<wgt id='1383'> +7.3814295e+01 </wgt>
<wgt id='1384'> +8.0859677e+01 </wgt>
<wgt id='1385'> +9.6729316e+01 </wgt>
<wgt id='1386'> +9.6797883e+01 </wgt>
<wgt id='1387'> +9.6658760e+01 </wgt>
<wgt id='1388'> +9.6452764e+01 </wgt>
<wgt id='1389'> +9.7200622e+01 </wgt>
<wgt id='1390'> +9.7092564e+01 </wgt>
<wgt id='1391'> +9.6308754e+01 </wgt>
<wgt id='1392'> +9.6589023e+01 </wgt>
<wgt id='1393'> +9.6840153e+01 </wgt>
<wgt id='1394'> +9.6154975e+01 </wgt>
<wgt id='1395'> +9.7447638e+01 </wgt>
<wgt id='1396'> +9.7534419e+01 </wgt>
<wgt id='1397'> +9.6314874e+01 </wgt>
<wgt id='1398'> +9.5230385e+01 </wgt>
<wgt id='1399'> +9.7855416e+01 </wgt>
<wgt id='1400'> +9.6662880e+01 </wgt>
<wgt id='1401'> +9.6771657e+01 </wgt>
<wgt id='1402'> +9.6728956e+01 </wgt>
<wgt id='1403'> +9.6737095e+01 </wgt>
<wgt id='1404'> +9.4099980e+01 </wgt>
<wgt id='1405'> +9.8080036e+01 </wgt>
<wgt id='1406'> +9.6397628e+01 </wgt>
<wgt id='1407'> +9.7326111e+01 </wgt>
<wgt id='1408'> +9.6118506e+01 </wgt>
<wgt id='1409'> +9.7966015e+01 </wgt>
<wgt id='1410'> +9.6961698e+01 </wgt>
<wgt id='1411'> +9.6222358e+01 </wgt>
<wgt id='1412'> +9.7421250e+01 </wgt>
<wgt id='1413'> +9.5650489e+01 </wgt>
<wgt id='1414'> +9.6198633e+01 </wgt>
<wgt id='1415'> +9.7166820e+01 </wgt>
<wgt id='1416'> +9.5784608e+01 </wgt>
<wgt id='1417'> +9.7178303e+01 </wgt>
<wgt id='1418'> +9.6299949e+01 </wgt>
<wgt id='1419'> +9.7534243e+01 </wgt>
<wgt id='1420'> +9.7566106e+01 </wgt>
<wgt id='1421'> +9.6851977e+01 </wgt>
<wgt id='1422'> +9.7573598e+01 </wgt>
<wgt id='1423'> +9.5756802e+01 </wgt>
<wgt id='1424'> +9.6861283e+01 </wgt>
<wgt id='1425'> +9.6523759e+01 </wgt>
<wgt id='1426'> +9.7749904e+01 </wgt>
<wgt id='1427'> +9.6737905e+01 </wgt>
<wgt id='1428'> +9.6778741e+01 </wgt>
<wgt id='1429'> +9.5777521e+01 </wgt>
<wgt id='1430'> +9.7313706e+01 </wgt>
<wgt id='1431'> +9.7443539e+01 </wgt>
<wgt id='1432'> +9.7288467e+01 </wgt>
<wgt id='1433'> +9.7682453e+01 </wgt>
<wgt id='1434'> +9.6828618e+01 </wgt>
<wgt id='1435'> +9.5795651e+01 </wgt>
<wgt id='1436'> +5.8649526e+01 </wgt>
<wgt id='1437'> +5.8640290e+01 </wgt>
<wgt id='1438'> +5.8726363e+01 </wgt>
<wgt id='1439'> +5.8654174e+01 </wgt>
<wgt id='1440'> +5.8449504e+01 </wgt>
<wgt id='1441'> +5.9117907e+01 </wgt>
<wgt id='1442'> +5.8299566e+01 </wgt>
<wgt id='1443'> +5.8585602e+01 </wgt>
<wgt id='1444'> +5.8579570e+01 </wgt>
<wgt id='1445'> +5.7466767e+01 </wgt>
<wgt id='1446'> +5.9371530e+01 </wgt>
<wgt id='1447'> +5.8461067e+01 </wgt>
<wgt id='1448'> +5.8470888e+01 </wgt>
<wgt id='1449'> +5.8760011e+01 </wgt>
<wgt id='1450'> +5.8707985e+01 </wgt>
<wgt id='1451'> +5.9058269e+01 </wgt>
<wgt id='1452'> +5.8388557e+01 </wgt>
<wgt id='1453'> +5.8892277e+01 </wgt>
<wgt id='1454'> +5.8900031e+01 </wgt>
<wgt id='1455'> +5.8744924e+01 </wgt>
<wgt id='1456'> +5.8743237e+01 </wgt>
<wgt id='1457'> +5.9337154e+01 </wgt>
<wgt id='1458'> +5.9477494e+01 </wgt>
<wgt id='1459'> +5.8393959e+01 </wgt>
<wgt id='1460'> +5.8457462e+01 </wgt>
<wgt id='1461'> +5.8872134e+01 </wgt>
<wgt id='1462'> +5.7486584e+01 </wgt>
<wgt id='1463'> +5.9617454e+01 </wgt>
<wgt id='1464'> +5.7787115e+01 </wgt>
<wgt id='1465'> +7.4545734e+01 </wgt>
<wgt id='1466'> +7.4938564e+01 </wgt>
<wgt id='1467'> +7.4715052e+01 </wgt>
<wgt id='1468'> +7.4649677e+01 </wgt>
<wgt id='1469'> +7.5402289e+01 </wgt>
<wgt id='1470'> +7.4775956e+01 </wgt>
<wgt id='1471'> +7.5080451e+01 </wgt>
<wgt id='1472'> +7.4218971e+01 </wgt>
<wgt id='1473'> +7.5035779e+01 </wgt>
<wgt id='1474'> +7.5102179e+01 </wgt>
<wgt id='1475'> +7.5440231e+01 </wgt>
<wgt id='1476'> +7.5290303e+01 </wgt>
<wgt id='1477'> +7.3840179e+01 </wgt>
<wgt id='1478'> +7.4456731e+01 </wgt>
<wgt id='1479'> +7.4260751e+01 </wgt>
<wgt id='1480'> +7.4581437e+01 </wgt>
<wgt id='1481'> +7.4594991e+01 </wgt>
<wgt id='1482'> +7.4197518e+01 </wgt>
<wgt id='1483'> +7.4920192e+01 </wgt>
<wgt id='1484'> +7.6274199e+01 </wgt>
<wgt id='1485'> +7.4502874e+01 </wgt>
<wgt id='1486'> +7.5321253e+01 </wgt>
<wgt id='1487'> +7.5618650e+01 </wgt>
<wgt id='1488'> +7.5417914e+01 </wgt>
<wgt id='1489'> +7.5560952e+01 </wgt>
<wgt id='1490'> +7.4551992e+01 </wgt>
<wgt id='1491'> +7.5602403e+01 </wgt>
<wgt id='1492'> +7.4909668e+01 </wgt>
<wgt id='1493'> +7.4930720e+01 </wgt>
<wgt id='1494'> +7.4881405e+01 </wgt>
<wgt id='1495'> +7.4782262e+01 </wgt>
<wgt id='1496'> +7.4602978e+01 </wgt>
<wgt id='1497'> +7.4803027e+01 </wgt>
<wgt id='1498'> +7.5434432e+01 </wgt>
<wgt id='1499'> +7.4886519e+01 </wgt>
<wgt id='1500'> +7.4583390e+01 </wgt>
<wgt id='1501'> +7.5212733e+01 </wgt>
<wgt id='1502'> +7.4803901e+01 </wgt>
<wgt id='1503'> +7.4949446e+01 </wgt>
<wgt id='1504'> +7.4724280e+01 </wgt>
<wgt id='1505'> +7.4648744e+01 </wgt>
<wgt id='1506'> +7.4945735e+01 </wgt>
<wgt id='1507'> +7.4773321e+01 </wgt>
<wgt id='1508'> +7.5128749e+01 </wgt>
<wgt id='1509'> +7.4932072e+01 </wgt>
<wgt id='1510'> +7.4859447e+01 </wgt>
<wgt id='1511'> +7.5019645e+01 </wgt>
<wgt id='1512'> +7.4891063e+01 </wgt>
<wgt id='1513'> +7.5201316e+01 </wgt>
<wgt id='1514'> +7.4870046e+01 </wgt>
<wgt id='1515'> +7.4969213e+01 </wgt>
<wgt id='1516'> +7.4992974e+01 </wgt>
<wgt id='1517'> +7.4688516e+01 </wgt>
<wgt id='1518'> +7.4959381e+01 </wgt>
<wgt id='1519'> +7.4941952e+01 </wgt>
<wgt id='1520'> +7.4743095e+01 </wgt>
<wgt id='1521'> +7.4972316e+01 </wgt>
<wgt id='1522'> +7.4869437e+01 </wgt>
<wgt id='1523'> +7.4804888e+01 </wgt>
<wgt id='1524'> +7.5129000e+01 </wgt>
<wgt id='1525'> +7.5111554e+01 </wgt>
<wgt id='1526'> +7.4797838e+01 </wgt>
<wgt id='1527'> +7.4965939e+01 </wgt>
<wgt id='1528'> +7.4870941e+01 </wgt>
<wgt id='1529'> +7.5035489e+01 </wgt>
<wgt id='1530'> +7.4961577e+01 </wgt>
<wgt id='1531'> +7.5064184e+01 </wgt>
<wgt id='1532'> +7.4923511e+01 </wgt>
<wgt id='1533'> +7.5015010e+01 </wgt>
<wgt id='1534'> +7.4959216e+01 </wgt>
<wgt id='1535'> +7.4975745e+01 </wgt>
<wgt id='1536'> +7.4907332e+01 </wgt>
<wgt id='1537'> +7.4916232e+01 </wgt>
<wgt id='1538'> +7.4980169e+01 </wgt>
<wgt id='1539'> +7.4890236e+01 </wgt>
<wgt id='1540'> +7.4871915e+01 </wgt>
<wgt id='1541'> +7.5003166e+01 </wgt>
<wgt id='1542'> +7.4953296e+01 </wgt>
<wgt id='1543'> +7.4909744e+01 </wgt>
<wgt id='1544'> +7.4896005e+01 </wgt>
<wgt id='1545'> +7.4994496e+01 </wgt>
<wgt id='1546'> +7.4945302e+01 </wgt>
<wgt id='1547'> +7.4940217e+01 </wgt>
<wgt id='1548'> +7.4865069e+01 </wgt>
<wgt id='1549'> +7.4971902e+01 </wgt>
<wgt id='1550'> +7.4932981e+01 </wgt>
<wgt id='1551'> +7.4895151e+01 </wgt>
<wgt id='1552'> +7.4963412e+01 </wgt>
<wgt id='1553'> +7.4901293e+01 </wgt>
<wgt id='1554'> +7.4963564e+01 </wgt>
<wgt id='1555'> +7.4969687e+01 </wgt>
<wgt id='1556'> +7.4941304e+01 </wgt>
<wgt id='1557'> +7.4916002e+01 </wgt>
<wgt id='1558'> +7.4927662e+01 </wgt>
<wgt id='1559'> +7.4929614e+01 </wgt>
<wgt id='1560'> +7.4923884e+01 </wgt>
<wgt id='1561'> +7.4890044e+01 </wgt>
<wgt id='1562'> +7.4930842e+01 </wgt>
<wgt id='1563'> +7.4953852e+01 </wgt>
<wgt id='1564'> +7.4935954e+01 </wgt>
<wgt id='1565'> +7.4927801e+01 </wgt>
<wgt id='1566'> +7.4949552e+01 </wgt>
<wgt id='1567'> +7.1289905e+01 </wgt>
<wgt id='1568'> +7.8648107e+01 </wgt>
<wgt id='1569'> +8.0115506e+01 </wgt>
<wgt id='1570'> +8.0205193e+01 </wgt>
<wgt id='1571'> +8.0178023e+01 </wgt>
<wgt id='1572'> +7.9894739e+01 </wgt>
<wgt id='1573'> +8.0225776e+01 </wgt>
<wgt id='1574'> +8.0747626e+01 </wgt>
<wgt id='1575'> +8.0426467e+01 </wgt>
<wgt id='1576'> +8.0246632e+01 </wgt>
<wgt id='1577'> +8.0002436e+01 </wgt>
<wgt id='1578'> +7.9691008e+01 </wgt>
<wgt id='1579'> +8.0060210e+01 </wgt>
<wgt id='1580'> +8.1078008e+01 </wgt>
<wgt id='1581'> +8.0381525e+01 </wgt>
<wgt id='1582'> +8.0305433e+01 </wgt>
<wgt id='1583'> +7.9555724e+01 </wgt>
<wgt id='1584'> +8.2189020e+01 </wgt>
<wgt id='1585'> +7.9813790e+01 </wgt>
<wgt id='1586'> +8.0130176e+01 </wgt>
<wgt id='1587'> +8.0238173e+01 </wgt>
<wgt id='1588'> +7.9381736e+01 </wgt>
<wgt id='1589'> +8.0153167e+01 </wgt>
<wgt id='1590'> +8.0256567e+01 </wgt>
<wgt id='1591'> +7.8948672e+01 </wgt>
<wgt id='1592'> +8.0419531e+01 </wgt>
<wgt id='1593'> +7.9791176e+01 </wgt>
<wgt id='1594'> +7.9711322e+01 </wgt>
<wgt id='1595'> +7.9730982e+01 </wgt>
<wgt id='1596'> +8.0303283e+01 </wgt>
<wgt id='1597'> +8.0193857e+01 </wgt>
<wgt id='1598'> +7.9570153e+01 </wgt>
<wgt id='1599'> +7.9949874e+01 </wgt>
<wgt id='1600'> +8.0046142e+01 </wgt>
<wgt id='1601'> +8.0383882e+01 </wgt>
<wgt id='1602'> +8.0339945e+01 </wgt>
<wgt id='1603'> +8.0095402e+01 </wgt>
<wgt id='1604'> +8.0305928e+01 </wgt>
<wgt id='1605'> +7.9972679e+01 </wgt>
<wgt id='1606'> +8.0557738e+01 </wgt>
<wgt id='1607'> +8.0706625e+01 </wgt>
<wgt id='1608'> +7.9944352e+01 </wgt>
<wgt id='1609'> +8.0220203e+01 </wgt>
<wgt id='1610'> +7.9713123e+01 </wgt>
<wgt id='1611'> +8.0000895e+01 </wgt>
<wgt id='1612'> +8.0258020e+01 </wgt>
<wgt id='1613'> +8.0231550e+01 </wgt>
<wgt id='1614'> +8.0035098e+01 </wgt>
<wgt id='1615'> +8.0122366e+01 </wgt>
<wgt id='1616'> +7.9933780e+01 </wgt>
<wgt id='1617'> +7.9943164e+01 </wgt>
<wgt id='1618'> +7.9983498e+01 </wgt>
<wgt id='1619'> +8.0093150e+01 </wgt>
<wgt id='1620'> +8.0139807e+01 </wgt>
<wgt id='1621'> +8.0099751e+01 </wgt>
<wgt id='1622'> +7.9986453e+01 </wgt>
<wgt id='1623'> +8.0131793e+01 </wgt>
<wgt id='1624'> +7.9919608e+01 </wgt>
<wgt id='1625'> +8.0334592e+01 </wgt>
<wgt id='1626'> +8.0235809e+01 </wgt>
<wgt id='1627'> +8.0114312e+01 </wgt>
<wgt id='1628'> +8.0124766e+01 </wgt>
<wgt id='1629'> +8.0035314e+01 </wgt>
<wgt id='1630'> +8.0272085e+01 </wgt>
<wgt id='1631'> +8.0011749e+01 </wgt>
<wgt id='1632'> +8.0215240e+01 </wgt>
<wgt id='1633'> +8.0028864e+01 </wgt>
<wgt id='1634'> +7.9964956e+01 </wgt>
<wgt id='1635'> +8.0061764e+01 </wgt>
<wgt id='1636'> +8.0108057e+01 </wgt>
<wgt id='1637'> +8.0187850e+01 </wgt>
<wgt id='1638'> +8.0051316e+01 </wgt>
<wgt id='1639'> +8.0068946e+01 </wgt>
<wgt id='1640'> +8.0215349e+01 </wgt>
<wgt id='1641'> +8.0056291e+01 </wgt>
<wgt id='1642'> +8.0109764e+01 </wgt>
<wgt id='1643'> +8.0066913e+01 </wgt>
<wgt id='1644'> +8.0144436e+01 </wgt>
<wgt id='1645'> +8.0135069e+01 </wgt>
<wgt id='1646'> +8.0125738e+01 </wgt>
<wgt id='1647'> +8.0116576e+01 </wgt>
<wgt id='1648'> +8.0115502e+01 </wgt>
<wgt id='1649'> +8.0190150e+01 </wgt>
<wgt id='1650'> +8.0067511e+01 </wgt>
<wgt id='1651'> +8.0128397e+01 </wgt>
<wgt id='1652'> +8.0089523e+01 </wgt>
<wgt id='1653'> +8.0071586e+01 </wgt>
<wgt id='1654'> +8.0135936e+01 </wgt>
<wgt id='1655'> +8.0140370e+01 </wgt>
<wgt id='1656'> +8.0045900e+01 </wgt>
<wgt id='1657'> +8.0116110e+01 </wgt>
<wgt id='1658'> +8.0097910e+01 </wgt>
<wgt id='1659'> +8.0159511e+01 </wgt>
<wgt id='1660'> +8.0083811e+01 </wgt>
<wgt id='1661'> +8.0061794e+01 </wgt>
<wgt id='1662'> +8.0112949e+01 </wgt>
<wgt id='1663'> +8.0113323e+01 </wgt>
<wgt id='1664'> +8.0107335e+01 </wgt>
<wgt id='1665'> +8.0146816e+01 </wgt>
<wgt id='1666'> +8.0125853e+01 </wgt>
<wgt id='1667'> +8.0130897e+01 </wgt>
<wgt id='1668'> +8.0084193e+01 </wgt>
<wgt id='1669'> +8.0115698e+01 </wgt>
<wgt id='1670'> +7.5900437e+01 </wgt>
<wgt id='1671'> +8.4107684e+01 </wgt>
<wgt id='1672'> +7.5217818e+01 </wgt>
<wgt id='1673'> +7.5073871e+01 </wgt>
<wgt id='1674'> +7.3799070e+01 </wgt>
<wgt id='1675'> +7.5221869e+01 </wgt>
<wgt id='1676'> +7.5328209e+01 </wgt>
<wgt id='1677'> +7.5387881e+01 </wgt>
<wgt id='1678'> +7.6295721e+01 </wgt>
<wgt id='1679'> +7.5245044e+01 </wgt>
<wgt id='1680'> +7.5375975e+01 </wgt>
<wgt id='1681'> +7.5764425e+01 </wgt>
<wgt id='1682'> +7.5323944e+01 </wgt>
<wgt id='1683'> +7.4838500e+01 </wgt>
<wgt id='1684'> +7.5478874e+01 </wgt>
<wgt id='1685'> +7.5214235e+01 </wgt>
<wgt id='1686'> +7.3486070e+01 </wgt>
<wgt id='1687'> +7.5475352e+01 </wgt>
<wgt id='1688'> +7.5432657e+01 </wgt>
<wgt id='1689'> +7.4771310e+01 </wgt>
<wgt id='1690'> +7.5126240e+01 </wgt>
<wgt id='1691'> +7.5435539e+01 </wgt>
<wgt id='1692'> +7.5378642e+01 </wgt>
<wgt id='1693'> +7.5201232e+01 </wgt>
<wgt id='1694'> +7.4993759e+01 </wgt>
<wgt id='1695'> +7.5286434e+01 </wgt>
<wgt id='1696'> +7.4958735e+01 </wgt>
<wgt id='1697'> +7.5305708e+01 </wgt>
<wgt id='1698'> +7.4027453e+01 </wgt>
<wgt id='1699'> +7.5327400e+01 </wgt>
<wgt id='1700'> +7.5190199e+01 </wgt>
<wgt id='1701'> +7.5386302e+01 </wgt>
<wgt id='1702'> +7.5209887e+01 </wgt>
<wgt id='1703'> +7.1289905e+01 </wgt>
<wgt id='1704'> +7.8648107e+01 </wgt>
<wgt id='1705'> +8.0166531e+01 </wgt>
<wgt id='1706'> +8.0522611e+01 </wgt>
<wgt id='1707'> +8.2811250e+01 </wgt>
<wgt id='1708'> +8.0111422e+01 </wgt>
<wgt id='1709'> +7.9936244e+01 </wgt>
<wgt id='1710'> +7.9689657e+01 </wgt>
<wgt id='1711'> +8.0200024e+01 </wgt>
<wgt id='1712'> +8.0175590e+01 </wgt>
<wgt id='1713'> +8.0182942e+01 </wgt>
<wgt id='1714'> +7.9773765e+01 </wgt>
<wgt id='1715'> +8.0228474e+01 </wgt>
<wgt id='1716'> +8.0608947e+01 </wgt>
<wgt id='1717'> +8.0231350e+01 </wgt>
<wgt id='1718'> +8.0096802e+01 </wgt>
<wgt id='1719'> +8.0069393e+01 </wgt>
<wgt id='1720'> +7.9669637e+01 </wgt>
<wgt id='1721'> +7.9994548e+01 </wgt>
<wgt id='1722'> +7.9850344e+01 </wgt>
<wgt id='1723'> +8.0204024e+01 </wgt>
<wgt id='1724'> +8.0566562e+01 </wgt>
<wgt id='1725'> +8.0080171e+01 </wgt>
<wgt id='1726'> +7.8806215e+01 </wgt>
<wgt id='1727'> +8.0300410e+01 </wgt>
<wgt id='1728'> +8.0155539e+01 </wgt>
<wgt id='1729'> +8.0124061e+01 </wgt>
<wgt id='1730'> +8.0200625e+01 </wgt>
<wgt id='1731'> +8.0216688e+01 </wgt>
<wgt id='1732'> +8.0196869e+01 </wgt>
<wgt id='1733'> +8.0155259e+01 </wgt>
<wgt id='1734'> +8.0113318e+01 </wgt>
<wgt id='1735'> +8.0276446e+01 </wgt>
<wgt id='1736'> +7.5900437e+01 </wgt>
<wgt id='1737'> +8.4107684e+01 </wgt>
<wgt id='1738'> +7.8122070e+01 </wgt>
<wgt id='1739'> +7.8267326e+01 </wgt>
<wgt id='1740'> +7.7977764e+01 </wgt>
<wgt id='1741'> +7.8087011e+01 </wgt>
<wgt id='1742'> +7.8156934e+01 </wgt>
<wgt id='1743'> +7.8186594e+01 </wgt>
<wgt id='1744'> +7.8057469e+01 </wgt>
<wgt id='1745'> +7.7838857e+01 </wgt>
<wgt id='1746'> +7.8396886e+01 </wgt>
<wgt id='1747'> +7.7747622e+01 </wgt>
<wgt id='1748'> +7.8458732e+01 </wgt>
<wgt id='1749'> +7.8578139e+01 </wgt>
<wgt id='1750'> +7.7637696e+01 </wgt>
<wgt id='1751'> +7.8188784e+01 </wgt>
<wgt id='1752'> +7.8052134e+01 </wgt>
<wgt id='1753'> +7.8567675e+01 </wgt>
<wgt id='1754'> +7.7709152e+01 </wgt>
<wgt id='1755'> +7.8360086e+01 </wgt>
<wgt id='1756'> +7.7776794e+01 </wgt>
<wgt id='1757'> +7.6575158e+01 </wgt>
<wgt id='1758'> +7.9634847e+01 </wgt>
<wgt id='1759'> +7.6609869e+01 </wgt>
<wgt id='1760'> +7.9544047e+01 </wgt>
<wgt id='1761'> +7.7153132e+01 </wgt>
<wgt id='1762'> +7.8815198e+01 </wgt>
<wgt id='1763'> +7.9045707e+01 </wgt>
<wgt id='1764'> +7.7247120e+01 </wgt>
<wgt id='1765'> +7.8076222e+01 </wgt>
<wgt id='1766'> +7.8197807e+01 </wgt>
<wgt id='1767'> +7.8122070e+01 </wgt>
<wgt id='1768'> +8.1184145e+01 </wgt>
<wgt id='1769'> +7.4874495e+01 </wgt>
<wgt id='1770'> +8.6962723e+01 </wgt>
<wgt id='1771'> +8.4416781e+01 </wgt>
<wgt id='1772'> +7.8884564e+01 </wgt>
<wgt id='1773'> +7.7960687e+01 </wgt>
<wgt id='1774'> +7.8080025e+01 </wgt>
<wgt id='1775'> +7.8145341e+01 </wgt>
<wgt id='1776'> +7.7620214e+01 </wgt>
<wgt id='1777'> +7.8589850e+01 </wgt>
<wgt id='1778'> +7.7694840e+01 </wgt>
<wgt id='1779'> +7.8924141e+01 </wgt>
<wgt id='1780'> +7.8606936e+01 </wgt>
<wgt id='1781'> +8.4999405e+01 </wgt>
<wgt id='1782'> +8.5143136e+01 </wgt>
<wgt id='1783'> +8.4833120e+01 </wgt>
<wgt id='1784'> +8.4928575e+01 </wgt>
<wgt id='1785'> +8.5046906e+01 </wgt>
<wgt id='1786'> +8.5036966e+01 </wgt>
<wgt id='1787'> +8.4938548e+01 </wgt>
<wgt id='1788'> +8.4670672e+01 </wgt>
<wgt id='1789'> +8.5290861e+01 </wgt>
<wgt id='1790'> +8.5151370e+01 </wgt>
<wgt id='1791'> +8.4816977e+01 </wgt>
<wgt id='1792'> +8.4512075e+01 </wgt>
<wgt id='1793'> +8.5426015e+01 </wgt>
<wgt id='1794'> +8.4982357e+01 </wgt>
<wgt id='1795'> +8.4994327e+01 </wgt>
<wgt id='1796'> +8.4968111e+01 </wgt>
<wgt id='1797'> +8.5096824e+01 </wgt>
<wgt id='1798'> +8.4469972e+01 </wgt>
<wgt id='1799'> +8.5483093e+01 </wgt>
<wgt id='1800'> +8.3404252e+01 </wgt>
<wgt id='1801'> +8.6493201e+01 </wgt>
<wgt id='1802'> +8.5170585e+01 </wgt>
<wgt id='1803'> +8.4716578e+01 </wgt>
<wgt id='1804'> +8.5938351e+01 </wgt>
<wgt id='1805'> +8.4084150e+01 </wgt>
<wgt id='1806'> +8.5510840e+01 </wgt>
<wgt id='1807'> +8.4552558e+01 </wgt>
<wgt id='1808'> +8.5195512e+01 </wgt>
<wgt id='1809'> +8.4907395e+01 </wgt>
<wgt id='1810'> +8.4628526e+01 </wgt>
<wgt id='1811'> +8.7759011e+01 </wgt>
<wgt id='1812'> +8.0306337e+01 </wgt>
<wgt id='1813'> +9.2586703e+01 </wgt>
<wgt id='1814'> +8.8817211e+01 </wgt>
<wgt id='1815'> +8.8206531e+01 </wgt>
<wgt id='1816'> +8.2614714e+01 </wgt>
<wgt id='1817'> +8.4554498e+01 </wgt>
<wgt id='1818'> +8.4601966e+01 </wgt>
<wgt id='1819'> +8.2933376e+01 </wgt>
<wgt id='1820'> +8.7771016e+01 </wgt>
<wgt id='1821'> +8.3119549e+01 </wgt>
<wgt id='1822'> +8.5132603e+01 </wgt>
<wgt id='1823'> +8.1530401e+01 </wgt>
<wgt id='1824'> +7.5149534e+01 </wgt>
<wgt id='1825'> +7.5121398e+01 </wgt>
<wgt id='1826'> +7.5093328e+01 </wgt>
<wgt id='1827'> +7.5065278e+01 </wgt>
<wgt id='1828'> +7.5037100e+01 </wgt>
<wgt id='1829'> +7.5009043e+01 </wgt>
<wgt id='1830'> +7.4981040e+01 </wgt>
<wgt id='1831'> +7.4953086e+01 </wgt>
<wgt id='1832'> +7.4924952e+01 </wgt>
<wgt id='1833'> +7.4897002e+01 </wgt>
<wgt id='1834'> +7.4868956e+01 </wgt>
<wgt id='1835'> +7.4840899e+01 </wgt>
<wgt id='1836'> +7.4812909e+01 </wgt>
<wgt id='1837'> +7.4785017e+01 </wgt>
<wgt id='1838'> +7.4756926e+01 </wgt>
<wgt id='1839'> +7.4728908e+01 </wgt>
<wgt id='1840'> +7.4700984e+01 </wgt>
<wgt id='1841'> +7.4672999e+01 </wgt>
<wgt id='1842'> +7.4644971e+01 </wgt>
<wgt id='1843'> +7.4616993e+01 </wgt>
<wgt id='1844'> +7.4589118e+01 </wgt>
<wgt id='1845'> +7.4561091e+01 </wgt>
<wgt id='1846'> +7.4533146e+01 </wgt>
<wgt id='1847'> +7.4505236e+01 </wgt>
<wgt id='1848'> +7.4477300e+01 </wgt>
<wgt id='1849'> +7.4449178e+01 </wgt>
<wgt id='1850'> +7.4421336e+01 </wgt>
<wgt id='1851'> +7.4393406e+01 </wgt>
<wgt id='1852'> +7.4365419e+01 </wgt>
<wgt id='1853'> +7.4337508e+01 </wgt>
<wgt id='1854'> +7.4309640e+01 </wgt>
<wgt id='1855'> +7.9873559e+01 </wgt>
<wgt id='1856'> +7.9947017e+01 </wgt>
<wgt id='1857'> +7.9931144e+01 </wgt>
<wgt id='1858'> +7.9655062e+01 </wgt>
<wgt id='1859'> +7.9980241e+01 </wgt>
<wgt id='1860'> +8.0502921e+01 </wgt>
<wgt id='1861'> +8.0195801e+01 </wgt>
<wgt id='1862'> +8.0015898e+01 </wgt>
<wgt id='1863'> +7.9761405e+01 </wgt>
<wgt id='1864'> +7.9451387e+01 </wgt>
<wgt id='1865'> +7.9815089e+01 </wgt>
<wgt id='1866'> +8.0850112e+01 </wgt>
<wgt id='1867'> +8.0147361e+01 </wgt>
<wgt id='1868'> +8.0069759e+01 </wgt>
<wgt id='1869'> +7.9313086e+01 </wgt>
<wgt id='1870'> +8.1920410e+01 </wgt>
<wgt id='1871'> +7.9589409e+01 </wgt>
<wgt id='1872'> +7.9880962e+01 </wgt>
<wgt id='1873'> +7.9991485e+01 </wgt>
<wgt id='1874'> +7.9151478e+01 </wgt>
<wgt id='1875'> +7.9923308e+01 </wgt>
<wgt id='1876'> +8.0007431e+01 </wgt>
<wgt id='1877'> +7.8706570e+01 </wgt>
<wgt id='1878'> +8.0181781e+01 </wgt>
<wgt id='1879'> +7.9541969e+01 </wgt>
<wgt id='1880'> +7.9457956e+01 </wgt>
<wgt id='1881'> +7.9478180e+01 </wgt>
<wgt id='1882'> +8.0073877e+01 </wgt>
<wgt id='1883'> +7.9957694e+01 </wgt>
<wgt id='1884'> +7.9323741e+01 </wgt>
<wgt id='1885'> +7.9702314e+01 </wgt>
<wgt id='1886'> +7.9818260e+01 </wgt>
<wgt id='1887'> +8.0135455e+01 </wgt>
<wgt id='1888'> +8.0093038e+01 </wgt>
<wgt id='1889'> +7.9852969e+01 </wgt>
<wgt id='1890'> +8.0060971e+01 </wgt>
<wgt id='1891'> +7.9732236e+01 </wgt>
<wgt id='1892'> +8.0315465e+01 </wgt>
<wgt id='1893'> +8.0461324e+01 </wgt>
<wgt id='1894'> +7.9698027e+01 </wgt>
<wgt id='1895'> +7.9978798e+01 </wgt>
<wgt id='1896'> +7.9469102e+01 </wgt>
<wgt id='1897'> +7.9757158e+01 </wgt>
<wgt id='1898'> +8.0022624e+01 </wgt>
<wgt id='1899'> +7.9987536e+01 </wgt>
<wgt id='1900'> +7.9792025e+01 </wgt>
<wgt id='1901'> +7.9884118e+01 </wgt>
<wgt id='1902'> +7.9689794e+01 </wgt>
<wgt id='1903'> +7.9704071e+01 </wgt>
<wgt id='1904'> +7.9741469e+01 </wgt>
<wgt id='1905'> +7.9851969e+01 </wgt>
<wgt id='1906'> +7.9896003e+01 </wgt>
<wgt id='1907'> +7.9857446e+01 </wgt>
<wgt id='1908'> +7.9745104e+01 </wgt>
<wgt id='1909'> +7.9891929e+01 </wgt>
<wgt id='1910'> +7.9679779e+01 </wgt>
<wgt id='1911'> +8.0087802e+01 </wgt>
<wgt id='1912'> +7.9993770e+01 </wgt>
<wgt id='1913'> +7.9876854e+01 </wgt>
<wgt id='1914'> +7.9885273e+01 </wgt>
<wgt id='1915'> +7.9796400e+01 </wgt>
<wgt id='1916'> +8.0030733e+01 </wgt>
<wgt id='1917'> +7.9768693e+01 </wgt>
<wgt id='1918'> +7.9971323e+01 </wgt>
<wgt id='1919'> +7.9788788e+01 </wgt>
<wgt id='1920'> +7.9723133e+01 </wgt>
<wgt id='1921'> +7.9819436e+01 </wgt>
<wgt id='1922'> +7.9863739e+01 </wgt>
<wgt id='1923'> +7.9946603e+01 </wgt>
<wgt id='1924'> +7.9807216e+01 </wgt>
<wgt id='1925'> +7.9826651e+01 </wgt>
<wgt id='1926'> +7.9974061e+01 </wgt>
<wgt id='1927'> +7.9813020e+01 </wgt>
<wgt id='1928'> +7.9866490e+01 </wgt>
<wgt id='1929'> +7.9825408e+01 </wgt>
<wgt id='1930'> +7.9902736e+01 </wgt>
<wgt id='1931'> +7.9895787e+01 </wgt>
<wgt id='1932'> +7.9884089e+01 </wgt>
<wgt id='1933'> +7.9876409e+01 </wgt>
<wgt id='1934'> +7.9873539e+01 </wgt>
<wgt id='1935'> +7.9945731e+01 </wgt>
<wgt id='1936'> +7.9828243e+01 </wgt>
<wgt id='1937'> +7.9887159e+01 </wgt>
<wgt id='1938'> +7.9847262e+01 </wgt>
<wgt id='1939'> +7.9828859e+01 </wgt>
<wgt id='1940'> +7.9894391e+01 </wgt>
<wgt id='1941'> +7.9901202e+01 </wgt>
<wgt id='1942'> +7.9803094e+01 </wgt>
<wgt id='1943'> +7.9873056e+01 </wgt>
<wgt id='1944'> +7.9854361e+01 </wgt>
<wgt id='1945'> +7.9916847e+01 </wgt>
<wgt id='1946'> +7.9840392e+01 </wgt>
<wgt id='1947'> +7.9818811e+01 </wgt>
<wgt id='1948'> +7.9871863e+01 </wgt>
<wgt id='1949'> +7.9869142e+01 </wgt>
<wgt id='1950'> +7.9865053e+01 </wgt>
<wgt id='1951'> +7.9905368e+01 </wgt>
<wgt id='1952'> +7.9884315e+01 </wgt>
<wgt id='1953'> +7.9888108e+01 </wgt>
<wgt id='1954'> +7.9843247e+01 </wgt>
<wgt id='1955'> +7.9874231e+01 </wgt>
<wgt id='1956'> +7.9873376e+01 </wgt>
<wgt id='1957'> +7.9874547e+01 </wgt>
<wgt id='1958'> +7.9873747e+01 </wgt>
<wgt id='1959'> +7.9873780e+01 </wgt>
<wgt id='1960'> +7.9874114e+01 </wgt>
<wgt id='1961'> +7.9873638e+01 </wgt>
<wgt id='1962'> +7.9874737e+01 </wgt>
</rwgt>
</event>
<event npLO=" -1 " npNLO=" 0 ">
 6      0 +1.5146096e+02 2.48926160e+01 7.54677110e-03 1.17965930e-01
       -2 -1    0    0    0  501 +0.0000000000e+00 +0.0000000000e+00 +6.1979765000e+00 6.1979765000e+00 0.0000000000e+00 0.0000e+00 9.0000e+00
        2 -1    0    0  501    0 +0.0000000000e+00 +0.0000000000e+00 -3.3665735000e+02 3.3665735000e+02 0.0000000000e+00 0.0000e+00 9.0000e+00
       23  2    1    2    0    0 +0.0000000000e+00 +0.0000000000e+00 -3.3045937000e+02 3.4285532000e+02 9.1358510000e+01 0.0000e+00 0.0000e+00
       11  1    3    3    0    0 -3.7669740000e+01 -2.5660408000e+01 -1.5452265000e+02 1.6110467000e+02 0.0000000000e+00 0.0000e+00 9.0000e+00
      -11  1    3    3    0    0 +2.4461404000e+01 +1.5854698000e+01 -1.1167942000e+02 1.1542108000e+02 0.0000000000e+00 0.0000e+00 9.0000e+00
       22  1    3    3    0    0 +1.3208336000e+01 +9.8057097000e+00 -6.4257302000e+01 6.6329578000e+01 0.0000000000e+00 0.0000e+00 9.0000e+00
#aMCatNLO 1  0  0  2  1 0.33992784E+01 0.00000000E+00 -9  6  0 0.00000000E+00 0.00000000E+00 0.00000000E+00 0.00000000E+00 0.00000000E+00
<rwgt>
<wgt id='1001'> +1.5146000e+02 </wgt>
<wgt id='1002'> +1.5146000e+02 </wgt>
<wgt id='1003'> +1.4508000e+02 </wgt>
<wgt id='1004'> +1.5242000e+02 </wgt>
<wgt id='1005'> +1.5650000e+02 </wgt>
<wgt id='1006'> +1.5392000e+02 </wgt>
<wgt id='1007'> +1.4696000e+02 </wgt>
<wgt id='1008'> +1.5321000e+02 </wgt>
<wgt id='1009'> +1.5149000e+02 </wgt>
<wgt id='1010'> +1.4808000e+02 </wgt>
<wgt id='1011'> +1.5044000e+02 </wgt>
<wgt id='1012'> +1.5050000e+02 </wgt>
<wgt id='1013'> +1.4368000e+02 </wgt>
<wgt id='1014'> +1.5432000e+02 </wgt>
<wgt id='1015'> +1.5631000e+02 </wgt>
<wgt id='1016'> +1.5271000e+02 </wgt>
<wgt id='1017'> +1.5127000e+02 </wgt>
<wgt id='1018'> +1.4758000e+02 </wgt>
<wgt id='1019'> +1.5056000e+02 </wgt>
<wgt id='1020'> +1.4489000e+02 </wgt>
<wgt id='1021'> +1.5269000e+02 </wgt>
<wgt id='1022'> +1.4766000e+02 </wgt>
<wgt id='1023'> +1.5701000e+02 </wgt>
<wgt id='1024'> +1.4624000e+02 </wgt>
<wgt id='1025'> +1.5745000e+02 </wgt>
<wgt id='1026'> +1.5629000e+02 </wgt>
<wgt id='1027'> +1.5135000e+02 </wgt>
<wgt id='1028'> +1.5304000e+02 </wgt>
<wgt id='1029'> +1.4731000e+02 </wgt>
<wgt id='1030'> +1.5363000e+02 </wgt>
<wgt id='1031'> +1.4989000e+02 </wgt>
<wgt id='1032'> +1.5132000e+02 </wgt>
<wgt id='1033'> +1.5542000e+02 </wgt>
<wgt id='1034'> +1.4730000e+02 </wgt>
<wgt id='1035'> +1.5251000e+02 </wgt>
<wgt id='1036'> +1.5611000e+02 </wgt>
<wgt id='1037'> +1.5220000e+02 </wgt>
<wgt id='1038'> +1.5123000e+02 </wgt>
<wgt id='1039'> +1.4926000e+02 </wgt>
<wgt id='1040'> +1.4333000e+02 </wgt>
<wgt id='1041'> +1.4981000e+02 </wgt>
<wgt id='1042'> +1.5248000e+02 </wgt>
<wgt id='1043'> +1.5599000e+02 </wgt>
<wgt id='1044'> +1.5354000e+02 </wgt>
<wgt id='1045'> +1.5183000e+02 </wgt>
<wgt id='1046'> +1.5015000e+02 </wgt>
<wgt id='1047'> +1.5467000e+02 </wgt>
<wgt id='1048'> +1.5383000e+02 </wgt>
<wgt id='1049'> +1.4912000e+02 </wgt>
<wgt id='1050'> +1.5158000e+02 </wgt>
<wgt id='1051'> +1.5154000e+02 </wgt>
<wgt id='1052'> +1.5436000e+02 </wgt>
<wgt id='1053'> +1.5245000e+02 </wgt>
<wgt id='1054'> +1.5010000e+02 </wgt>
<wgt id='1055'> +1.5493000e+02 </wgt>
<wgt id='1056'> +1.5375000e+02 </wgt>
<wgt id='1057'> +1.5236000e+02 </wgt>
<wgt id='1058'> +1.5071000e+02 </wgt>
<wgt id='1059'> +1.5380000e+02 </wgt>
<wgt id='1060'> +1.5372000e+02 </wgt>
<wgt id='1061'> +1.5403000e+02 </wgt>
<wgt id='1062'> +1.5088000e+02 </wgt>
<wgt id='1063'> +1.5123000e+02 </wgt>
<wgt id='1064'> +1.5108000e+02 </wgt>
<wgt id='1065'> +1.5873000e+02 </wgt>
<wgt id='1066'> +1.4197000e+02 </wgt>
<wgt id='1067'> +1.5311000e+02 </wgt>
<wgt id='1068'> +1.5223000e+02 </wgt>
<wgt id='1069'> +1.4987000e+02 </wgt>
<wgt id='1070'> +1.5403000e+02 </wgt>
<wgt id='1071'> +1.4962000e+02 </wgt>
<wgt id='1072'> +1.4938000e+02 </wgt>
<wgt id='1073'> +1.5247000e+02 </wgt>
<wgt id='1074'> +1.4947000e+02 </wgt>
<wgt id='1075'> +1.4431000e+02 </wgt>
<wgt id='1076'> +1.5751000e+02 </wgt>
<wgt id='1077'> +1.5231000e+02 </wgt>
<wgt id='1078'> +1.4726000e+02 </wgt>
<wgt id='1079'> +1.5061000e+02 </wgt>
<wgt id='1080'> +1.5207000e+02 </wgt>
<wgt id='1081'> +1.4763000e+02 </wgt>
<wgt id='1082'> +1.5089000e+02 </wgt>
<wgt id='1083'> +1.5574000e+02 </wgt>
<wgt id='1084'> +1.5604000e+02 </wgt>
<wgt id='1085'> +1.4799000e+02 </wgt>
<wgt id='1086'> +1.5255000e+02 </wgt>
<wgt id='1087'> +1.5044000e+02 </wgt>
<wgt id='1088'> +1.5055000e+02 </wgt>
<wgt id='1089'> +1.5399000e+02 </wgt>
<wgt id='1090'> +1.5324000e+02 </wgt>
<wgt id='1091'> +1.4868000e+02 </wgt>
<wgt id='1092'> +1.5464000e+02 </wgt>
<wgt id='1093'> +1.5041000e+02 </wgt>
<wgt id='1094'> +1.4779000e+02 </wgt>
<wgt id='1095'> +1.4896000e+02 </wgt>
<wgt id='1096'> +1.5349000e+02 </wgt>
<wgt id='1097'> +1.4805000e+02 </wgt>
<wgt id='1098'> +1.5237000e+02 </wgt>
<wgt id='1099'> +1.5246000e+02 </wgt>
<wgt id='1100'> +1.5630000e+02 </wgt>
<wgt id='1101'> +1.5254000e+02 </wgt>
<wgt id='1102'> +1.4758000e+02 </wgt>
<wgt id='1103'> +1.5064000e+02 </wgt>
<wgt id='1104'> +1.5202000e+02 </wgt>
<wgt id='1105'> +1.5146096e+02 </wgt>
<wgt id='1106'> +7.5736460e+01 </wgt>
<wgt id='1107'> +7.5722968e+01 </wgt>
<wgt id='1108'> +8.3086082e+01 </wgt>
<wgt id='1109'> +8.3205647e+01 </wgt>
<wgt id='1110'> +8.2937882e+01 </wgt>
<wgt id='1111'> +6.7499064e+01 </wgt>
<wgt id='1112'> +6.7410175e+01 </wgt>
<wgt id='1113'> +6.7609059e+01 </wgt>
<wgt id='1114'> +8.2138433e+01 </wgt>
<wgt id='1115'> +8.5117743e+01 </wgt>
<wgt id='1116'> +8.1592395e+01 </wgt>
<wgt id='1117'> +8.0730308e+01 </wgt>
<wgt id='1118'> +8.0178866e+01 </wgt>
<wgt id='1119'> +8.0913063e+01 </wgt>
<wgt id='1120'> +8.2582545e+01 </wgt>
<wgt id='1121'> +8.3145758e+01 </wgt>
<wgt id='1122'> +8.2112713e+01 </wgt>
<wgt id='1123'> +8.0469460e+01 </wgt>
<wgt id='1124'> +8.0903505e+01 </wgt>
<wgt id='1125'> +8.2781258e+01 </wgt>
<wgt id='1126'> +8.0397099e+01 </wgt>
<wgt id='1127'> +8.2027790e+01 </wgt>
<wgt id='1128'> +8.4130857e+01 </wgt>
<wgt id='1129'> +8.2188625e+01 </wgt>
<wgt id='1130'> +8.2756579e+01 </wgt>
<wgt id='1131'> +8.3211989e+01 </wgt>
<wgt id='1132'> +8.1270141e+01 </wgt>
<wgt id='1133'> +8.3655464e+01 </wgt>
<wgt id='1134'> +8.0367728e+01 </wgt>
<wgt id='1135'> +8.0900389e+01 </wgt>
<wgt id='1136'> +8.2066666e+01 </wgt>
<wgt id='1137'> +8.2351772e+01 </wgt>
<wgt id='1138'> +8.1434990e+01 </wgt>
<wgt id='1139'> +8.1494546e+01 </wgt>
<wgt id='1140'> +8.5164603e+01 </wgt>
<wgt id='1141'> +8.3830842e+01 </wgt>
<wgt id='1142'> +8.2058333e+01 </wgt>
<wgt id='1143'> +8.4036250e+01 </wgt>
<wgt id='1144'> +8.3098798e+01 </wgt>
<wgt id='1145'> +8.2838921e+01 </wgt>
<wgt id='1146'> +7.9962604e+01 </wgt>
<wgt id='1147'> +8.1903047e+01 </wgt>
<wgt id='1148'> +8.1363773e+01 </wgt>
<wgt id='1149'> +8.1972477e+01 </wgt>
<wgt id='1150'> +8.1902109e+01 </wgt>
<wgt id='1151'> +8.1034731e+01 </wgt>
<wgt id='1152'> +8.1389596e+01 </wgt>
<wgt id='1153'> +8.1970118e+01 </wgt>
<wgt id='1154'> +8.3445938e+01 </wgt>
<wgt id='1155'> +8.2661318e+01 </wgt>
<wgt id='1156'> +8.3168269e+01 </wgt>
<wgt id='1157'> +8.2157376e+01 </wgt>
<wgt id='1158'> +8.2475916e+01 </wgt>
<wgt id='1159'> +8.1218011e+01 </wgt>
<wgt id='1160'> +8.3714663e+01 </wgt>
<wgt id='1161'> +8.2776036e+01 </wgt>
<wgt id='1162'> +8.5425382e+01 </wgt>
<wgt id='1163'> +8.3643829e+01 </wgt>
<wgt id='1164'> +8.2712793e+01 </wgt>
<wgt id='1165'> +8.1852317e+01 </wgt>
<wgt id='1166'> +8.1024881e+01 </wgt>
<wgt id='1167'> +8.3491199e+01 </wgt>
<wgt id='1168'> +8.2654555e+01 </wgt>
<wgt id='1169'> +8.5192449e+01 </wgt>
<wgt id='1170'> +8.1242799e+01 </wgt>
<wgt id='1171'> +8.2839844e+01 </wgt>
<wgt id='1172'> +8.1832574e+01 </wgt>
<wgt id='1173'> +8.2597211e+01 </wgt>
<wgt id='1174'> +8.3357841e+01 </wgt>
<wgt id='1175'> +8.2343336e+01 </wgt>
<wgt id='1176'> +8.1806859e+01 </wgt>
<wgt id='1177'> +8.3124046e+01 </wgt>
<wgt id='1178'> +8.2713545e+01 </wgt>
<wgt id='1179'> +8.2526908e+01 </wgt>
<wgt id='1180'> +8.2458397e+01 </wgt>
<wgt id='1181'> +8.2931051e+01 </wgt>
<wgt id='1182'> +8.2832461e+01 </wgt>
<wgt id='1183'> +8.3159638e+01 </wgt>
<wgt id='1184'> +8.1884181e+01 </wgt>
<wgt id='1185'> +8.1128786e+01 </wgt>
<wgt id='1186'> +8.4232457e+01 </wgt>
<wgt id='1187'> +7.7643605e+01 </wgt>
<wgt id='1188'> +8.0021769e+01 </wgt>
<wgt id='1189'> +8.1011547e+01 </wgt>
<wgt id='1190'> +8.5041408e+01 </wgt>
<wgt id='1191'> +8.0253731e+01 </wgt>
<wgt id='1192'> +8.2417206e+01 </wgt>
<wgt id='1193'> +8.1711251e+01 </wgt>
<wgt id='1194'> +8.3233024e+01 </wgt>
<wgt id='1195'> +8.1141560e+01 </wgt>
<wgt id='1196'> +8.2756579e+01 </wgt>
<wgt id='1197'> +8.1195446e+01 </wgt>
<wgt id='1198'> +8.1444173e+01 </wgt>
<wgt id='1199'> +8.1266610e+01 </wgt>
<wgt id='1200'> +8.3819131e+01 </wgt>
<wgt id='1201'> +8.0325534e+01 </wgt>
<wgt id='1202'> +8.2439411e+01 </wgt>
<wgt id='1203'> +7.8253113e+01 </wgt>
<wgt id='1204'> +8.0874361e+01 </wgt>
<wgt id='1205'> +8.2661751e+01 </wgt>
<wgt id='1206'> +8.1365062e+01 </wgt>
<wgt id='1207'> +8.1141299e+01 </wgt>
<wgt id='1208'> +8.2299825e+01 </wgt>
<wgt id='1209'> +8.0377804e+01 </wgt>
<wgt id='1210'> +8.1888003e+01 </wgt>
<wgt id='1211'> +8.2467914e+01 </wgt>
<wgt id='1212'> +8.1270714e+01 </wgt>
<wgt id='1213'> +8.2367071e+01 </wgt>
<wgt id='1214'> +8.1464565e+01 </wgt>
<wgt id='1215'> +7.9120579e+01 </wgt>
<wgt id='1216'> +8.0821114e+01 </wgt>
<wgt id='1217'> +8.0820786e+01 </wgt>
<wgt id='1218'> +8.0941180e+01 </wgt>
<wgt id='1219'> +8.0743807e+01 </wgt>
<wgt id='1220'> +8.1251461e+01 </wgt>
<wgt id='1221'> +8.0744378e+01 </wgt>
<wgt id='1222'> +8.0689117e+01 </wgt>
<wgt id='1223'> +8.0725772e+01 </wgt>
<wgt id='1224'> +8.0525788e+01 </wgt>
<wgt id='1225'> +8.0819417e+01 </wgt>
<wgt id='1226'> +8.0420926e+01 </wgt>
<wgt id='1227'> +8.0758538e+01 </wgt>
<wgt id='1228'> +8.0873220e+01 </wgt>
<wgt id='1229'> +8.0836404e+01 </wgt>
<wgt id='1230'> +8.1098028e+01 </wgt>
<wgt id='1231'> +8.0422821e+01 </wgt>
<wgt id='1232'> +8.0755530e+01 </wgt>
<wgt id='1233'> +8.0751671e+01 </wgt>
<wgt id='1234'> +8.0949650e+01 </wgt>
<wgt id='1235'> +8.0896237e+01 </wgt>
<wgt id='1236'> +8.0542801e+01 </wgt>
<wgt id='1237'> +8.1071270e+01 </wgt>
<wgt id='1238'> +8.0973971e+01 </wgt>
<wgt id='1239'> +8.1130917e+01 </wgt>
<wgt id='1240'> +8.0869193e+01 </wgt>
<wgt id='1241'> +8.0438016e+01 </wgt>
<wgt id='1242'> +8.0689014e+01 </wgt>
<wgt id='1243'> +8.1045981e+01 </wgt>
<wgt id='1244'> +8.0776839e+01 </wgt>
<wgt id='1245'> +8.1420128e+01 </wgt>
<wgt id='1246'> +8.0691698e+01 </wgt>
<wgt id='1247'> +8.0438679e+01 </wgt>
<wgt id='1248'> +8.0833137e+01 </wgt>
<wgt id='1249'> +8.0900767e+01 </wgt>
<wgt id='1250'> +8.0983468e+01 </wgt>
<wgt id='1251'> +8.0947279e+01 </wgt>
<wgt id='1252'> +8.0955181e+01 </wgt>
<wgt id='1253'> +8.0746488e+01 </wgt>
<wgt id='1254'> +8.0879766e+01 </wgt>
<wgt id='1255'> +8.0733614e+01 </wgt>
<wgt id='1256'> +8.0807072e+01 </wgt>
<wgt id='1257'> +8.0770093e+01 </wgt>
<wgt id='1258'> +8.0912845e+01 </wgt>
<wgt id='1259'> +8.0708083e+01 </wgt>
<wgt id='1260'> +8.0844168e+01 </wgt>
<wgt id='1261'> +8.0876322e+01 </wgt>
<wgt id='1262'> +8.0801788e+01 </wgt>
<wgt id='1263'> +8.0806099e+01 </wgt>
<wgt id='1264'> +8.0962192e+01 </wgt>
<wgt id='1265'> +8.0943056e+01 </wgt>
<wgt id='1266'> +8.0729168e+01 </wgt>
<wgt id='1267'> +8.0763991e+01 </wgt>
<wgt id='1268'> +8.0812859e+01 </wgt>
<wgt id='1269'> +8.0709138e+01 </wgt>
<wgt id='1270'> +8.0848595e+01 </wgt>
<wgt id='1271'> +8.0899827e+01 </wgt>
<wgt id='1272'> +8.0762843e+01 </wgt>
<wgt id='1273'> +8.0774413e+01 </wgt>
<wgt id='1274'> +8.0644035e+01 </wgt>
<wgt id='1275'> +8.0836800e+01 </wgt>
<wgt id='1276'> +8.0903582e+01 </wgt>
<wgt id='1277'> +8.0850149e+01 </wgt>
<wgt id='1278'> +8.0785032e+01 </wgt>
<wgt id='1279'> +8.0886780e+01 </wgt>
<wgt id='1280'> +8.0844089e+01 </wgt>
<wgt id='1281'> +8.0948532e+01 </wgt>
<wgt id='1282'> +8.0771579e+01 </wgt>
<wgt id='1283'> +8.0763274e+01 </wgt>
<wgt id='1284'> +8.0881502e+01 </wgt>
<wgt id='1285'> +8.0727636e+01 </wgt>
<wgt id='1286'> +8.0924689e+01 </wgt>
<wgt id='1287'> +8.0817537e+01 </wgt>
<wgt id='1288'> +8.0926750e+01 </wgt>
<wgt id='1289'> +8.0784538e+01 </wgt>
<wgt id='1290'> +8.0818621e+01 </wgt>
<wgt id='1291'> +8.0746619e+01 </wgt>
<wgt id='1292'> +8.0771002e+01 </wgt>
<wgt id='1293'> +8.0868088e+01 </wgt>
<wgt id='1294'> +8.0815149e+01 </wgt>
<wgt id='1295'> +8.0799921e+01 </wgt>
<wgt id='1296'> +8.0802706e+01 </wgt>
<wgt id='1297'> +8.0859917e+01 </wgt>
<wgt id='1298'> +8.0797968e+01 </wgt>
<wgt id='1299'> +8.0868769e+01 </wgt>
<wgt id='1300'> +8.0765283e+01 </wgt>
<wgt id='1301'> +8.0795889e+01 </wgt>
<wgt id='1302'> +8.0795113e+01 </wgt>
<wgt id='1303'> +8.0813332e+01 </wgt>
<wgt id='1304'> +8.0796874e+01 </wgt>
<wgt id='1305'> +8.0744031e+01 </wgt>
<wgt id='1306'> +8.0830196e+01 </wgt>
<wgt id='1307'> +8.0781881e+01 </wgt>
<wgt id='1308'> +8.0784067e+01 </wgt>
<wgt id='1309'> +8.0808808e+01 </wgt>
<wgt id='1310'> +8.0880987e+01 </wgt>
<wgt id='1311'> +8.0831443e+01 </wgt>
<wgt id='1312'> +8.0807122e+01 </wgt>
<wgt id='1313'> +8.0819627e+01 </wgt>
<wgt id='1314'> +8.0841897e+01 </wgt>
<wgt id='1315'> +8.0839941e+01 </wgt>
<wgt id='1316'> +8.0763045e+01 </wgt>
<wgt id='1317'> +8.0311109e+01 </wgt>
<wgt id='1318'> +8.1576879e+01 </wgt>
<wgt id='1319'> +8.0707119e+01 </wgt>
<wgt id='1320'> +7.9490866e+01 </wgt>
<wgt id='1321'> +7.9446472e+01 </wgt>
<wgt id='1322'> +8.0550526e+01 </wgt>
<wgt id='1323'> +8.0195893e+01 </wgt>
<wgt id='1324'> +8.0150385e+01 </wgt>
<wgt id='1325'> +7.9342511e+01 </wgt>
<wgt id='1326'> +8.0388972e+01 </wgt>
<wgt id='1327'> +7.8779466e+01 </wgt>
<wgt id='1328'> +8.1632549e+01 </wgt>
<wgt id='1329'> +7.8024476e+01 </wgt>
<wgt id='1330'> +8.1674126e+01 </wgt>
<wgt id='1331'> +8.0704270e+01 </wgt>
<wgt id='1332'> +7.8977222e+01 </wgt>
<wgt id='1333'> +7.7947905e+01 </wgt>
<wgt id='1334'> +7.9951248e+01 </wgt>
<wgt id='1335'> +8.0317676e+01 </wgt>
<wgt id='1336'> +7.8196667e+01 </wgt>
<wgt id='1337'> +8.0729405e+01 </wgt>
<wgt id='1338'> +7.8044347e+01 </wgt>
<wgt id='1339'> +8.0483860e+01 </wgt>
<wgt id='1340'> +7.8403707e+01 </wgt>
<wgt id='1341'> +7.9671809e+01 </wgt>
<wgt id='1342'> +7.9098473e+01 </wgt>
<wgt id='1343'> +7.9748986e+01 </wgt>
<wgt id='1344'> +7.9161601e+01 </wgt>
<wgt id='1345'> +7.8768233e+01 </wgt>
<wgt id='1346'> +8.0249387e+01 </wgt>
<wgt id='1347'> +7.8946767e+01 </wgt>
<wgt id='1348'> +8.0169810e+01 </wgt>
<wgt id='1349'> +7.8565452e+01 </wgt>
<wgt id='1350'> +7.9805210e+01 </wgt>
<wgt id='1351'> +7.9400881e+01 </wgt>
<wgt id='1352'> +7.9607000e+01 </wgt>
<wgt id='1353'> +7.9503046e+01 </wgt>
<wgt id='1354'> +7.9428703e+01 </wgt>
<wgt id='1355'> +7.8825579e+01 </wgt>
<wgt id='1356'> +8.0240093e+01 </wgt>
<wgt id='1357'> +7.9570634e+01 </wgt>
<wgt id='1358'> +7.8988337e+01 </wgt>
<wgt id='1359'> +7.8619715e+01 </wgt>
<wgt id='1360'> +7.9687140e+01 </wgt>
<wgt id='1361'> +8.0610278e+01 </wgt>
<wgt id='1362'> +7.8371856e+01 </wgt>
<wgt id='1363'> +7.9825580e+01 </wgt>
<wgt id='1364'> +7.8919134e+01 </wgt>
<wgt id='1365'> +7.9426527e+01 </wgt>
<wgt id='1366'> +7.9341501e+01 </wgt>
<wgt id='1367'> +7.9482114e+01 </wgt>
<wgt id='1368'> +7.9293620e+01 </wgt>
<wgt id='1369'> +7.9993635e+01 </wgt>
<wgt id='1370'> +7.8999260e+01 </wgt>
<wgt id='1371'> +7.8616534e+01 </wgt>
<wgt id='1372'> +7.9490616e+01 </wgt>
<wgt id='1373'> +7.9204761e+01 </wgt>
<wgt id='1374'> +7.8871969e+01 </wgt>
<wgt id='1375'> +7.7324974e+01 </wgt>
<wgt id='1376'> +8.1245004e+01 </wgt>
<wgt id='1377'> +7.8579439e+01 </wgt>
<wgt id='1378'> +8.0313742e+01 </wgt>
<wgt id='1379'> +8.2660894e+01 </wgt>
<wgt id='1380'> +8.1790101e+01 </wgt>
<wgt id='1381'> +8.3489864e+01 </wgt>
<wgt id='1382'> +7.1434120e+01 </wgt>
<wgt id='1383'> +7.5979845e+01 </wgt>
<wgt id='1384'> +8.1048781e+01 </wgt>
<wgt id='1385'> +6.7464566e+01 </wgt>
<wgt id='1386'> +6.7418416e+01 </wgt>
<wgt id='1387'> +6.7517776e+01 </wgt>
<wgt id='1388'> +6.7253112e+01 </wgt>
<wgt id='1389'> +6.7828770e+01 </wgt>
<wgt id='1390'> +6.7721003e+01 </wgt>
<wgt id='1391'> +6.7166230e+01 </wgt>
<wgt id='1392'> +6.7754013e+01 </wgt>
<wgt id='1393'> +6.7267822e+01 </wgt>
<wgt id='1394'> +6.7358319e+01 </wgt>
<wgt id='1395'> +6.7598142e+01 </wgt>
<wgt id='1396'> +6.7178633e+01 </wgt>
<wgt id='1397'> +6.7610062e+01 </wgt>
<wgt id='1398'> +6.7230319e+01 </wgt>
<wgt id='1399'> +6.7638059e+01 </wgt>
<wgt id='1400'> +6.7811163e+01 </wgt>
<wgt id='1401'> +6.7190402e+01 </wgt>
<wgt id='1402'> +6.7828586e+01 </wgt>
<wgt id='1403'> +6.7297005e+01 </wgt>
<wgt id='1404'> +6.6298729e+01 </wgt>
<wgt id='1405'> +6.8039916e+01 </wgt>
<wgt id='1406'> +6.7094031e+01 </wgt>
<wgt id='1407'> +6.8122991e+01 </wgt>
<wgt id='1408'> +6.7404997e+01 </wgt>
<wgt id='1409'> +6.7587234e+01 </wgt>
<wgt id='1410'> +6.7515304e+01 </wgt>
<wgt id='1411'> +6.7310775e+01 </wgt>
<wgt id='1412'> +6.7720930e+01 </wgt>
<wgt id='1413'> +6.6939393e+01 </wgt>
<wgt id='1414'> +6.7637186e+01 </wgt>
<wgt id='1415'> +6.7341859e+01 </wgt>
<wgt id='1416'> +6.7659836e+01 </wgt>
<wgt id='1417'> +6.7401485e+01 </wgt>
<wgt id='1418'> +6.7279221e+01 </wgt>
<wgt id='1419'> +6.7826039e+01 </wgt>
<wgt id='1420'> +6.7096873e+01 </wgt>
<wgt id='1421'> +6.7563881e+01 </wgt>
<wgt id='1422'> +6.7617041e+01 </wgt>
<wgt id='1423'> +6.7317353e+01 </wgt>
<wgt id='1424'> +6.7707800e+01 </wgt>
<wgt id='1425'> +6.6813597e+01 </wgt>
<wgt id='1426'> +6.7875711e+01 </wgt>
<wgt id='1427'> +6.7634640e+01 </wgt>
<wgt id='1428'> +6.7193542e+01 </wgt>
<wgt id='1429'> +6.6923014e+01 </wgt>
<wgt id='1430'> +6.7846686e+01 </wgt>
<wgt id='1431'> +6.7804102e+01 </wgt>
<wgt id='1432'> +6.7850978e+01 </wgt>
<wgt id='1433'> +6.7922451e+01 </wgt>
<wgt id='1434'> +6.7560962e+01 </wgt>
<wgt id='1435'> +6.7827672e+01 </wgt>
<wgt id='1436'> +8.5488395e+01 </wgt>
<wgt id='1437'> +8.5611987e+01 </wgt>
<wgt id='1438'> +8.5322350e+01 </wgt>
<wgt id='1439'> +8.5488223e+01 </wgt>
<wgt id='1440'> +8.5553832e+01 </wgt>
<wgt id='1441'> +8.5793996e+01 </wgt>
<wgt id='1442'> +8.5384797e+01 </wgt>
<wgt id='1443'> +8.5754638e+01 </wgt>
<wgt id='1444'> +8.5350089e+01 </wgt>
<wgt id='1445'> +8.5272373e+01 </wgt>
<wgt id='1446'> +8.5525281e+01 </wgt>
<wgt id='1447'> +8.5648591e+01 </wgt>
<wgt id='1448'> +8.5218333e+01 </wgt>
<wgt id='1449'> +8.5740219e+01 </wgt>
<wgt id='1450'> +8.5486668e+01 </wgt>
<wgt id='1451'> +8.5490833e+01 </wgt>
<wgt id='1452'> +8.5237453e+01 </wgt>
<wgt id='1453'> +8.5380770e+01 </wgt>
<wgt id='1454'> +8.5557828e+01 </wgt>
<wgt id='1455'> +8.5175724e+01 </wgt>
<wgt id='1456'> +8.5251377e+01 </wgt>
<wgt id='1457'> +8.5676404e+01 </wgt>
<wgt id='1458'> +8.5188701e+01 </wgt>
<wgt id='1459'> +8.5560612e+01 </wgt>
<wgt id='1460'> +8.5631801e+01 </wgt>
<wgt id='1461'> +8.5977275e+01 </wgt>
<wgt id='1462'> +8.5656127e+01 </wgt>
<wgt id='1463'> +8.5659791e+01 </wgt>
<wgt id='1464'> +8.5682274e+01 </wgt>
<wgt id='1465'> +8.4216238e+01 </wgt>
<wgt id='1466'> +7.7020742e+01 </wgt>
<wgt id='1467'> +7.6669894e+01 </wgt>
<wgt id='1468'> +7.6321929e+01 </wgt>
<wgt id='1469'> +7.8184243e+01 </wgt>
<wgt id='1470'> +7.6744659e+01 </wgt>
<wgt id='1471'> +7.7236139e+01 </wgt>
<wgt id='1472'> +7.6237634e+01 </wgt>
<wgt id='1473'> +7.7793655e+01 </wgt>
<wgt id='1474'> +7.7568997e+01 </wgt>
<wgt id='1475'> +7.6371793e+01 </wgt>
<wgt id='1476'> +7.6554833e+01 </wgt>
<wgt id='1477'> +7.6606203e+01 </wgt>
<wgt id='1478'> +7.6685652e+01 </wgt>
<wgt id='1479'> +7.7963215e+01 </wgt>
<wgt id='1480'> +7.6971013e+01 </wgt>
<wgt id='1481'> +7.6770722e+01 </wgt>
<wgt id='1482'> +7.6935033e+01 </wgt>
<wgt id='1483'> +7.6756134e+01 </wgt>
<wgt id='1484'> +7.7706506e+01 </wgt>
<wgt id='1485'> +7.6701655e+01 </wgt>
<wgt id='1486'> +7.7119794e+01 </wgt>
<wgt id='1487'> +7.6744881e+01 </wgt>
<wgt id='1488'> +7.6424218e+01 </wgt>
<wgt id='1489'> +7.7264130e+01 </wgt>
<wgt id='1490'> +7.7082819e+01 </wgt>
<wgt id='1491'> +7.7323382e+01 </wgt>
<wgt id='1492'> +7.6886819e+01 </wgt>
<wgt id='1493'> +7.6973551e+01 </wgt>
<wgt id='1494'> +7.7064117e+01 </wgt>
<wgt id='1495'> +7.6882800e+01 </wgt>
<wgt id='1496'> +7.6847894e+01 </wgt>
<wgt id='1497'> +7.7091649e+01 </wgt>
<wgt id='1498'> +7.6767705e+01 </wgt>
<wgt id='1499'> +7.6577679e+01 </wgt>
<wgt id='1500'> +7.7113455e+01 </wgt>
<wgt id='1501'> +7.7134921e+01 </wgt>
<wgt id='1502'> +7.6954639e+01 </wgt>
<wgt id='1503'> +7.6861585e+01 </wgt>
<wgt id='1504'> +7.7121338e+01 </wgt>
<wgt id='1505'> +7.7182603e+01 </wgt>
<wgt id='1506'> +7.7042568e+01 </wgt>
<wgt id='1507'> +7.7150009e+01 </wgt>
<wgt id='1508'> +7.6961930e+01 </wgt>
<wgt id='1509'> +7.7018748e+01 </wgt>
<wgt id='1510'> +7.7119062e+01 </wgt>
<wgt id='1511'> +7.7022258e+01 </wgt>
<wgt id='1512'> +7.6942448e+01 </wgt>
<wgt id='1513'> +7.6808293e+01 </wgt>
<wgt id='1514'> +7.7008529e+01 </wgt>
<wgt id='1515'> +7.6989315e+01 </wgt>
<wgt id='1516'> +7.6980577e+01 </wgt>
<wgt id='1517'> +7.7017737e+01 </wgt>
<wgt id='1518'> +7.7045389e+01 </wgt>
<wgt id='1519'> +7.7126428e+01 </wgt>
<wgt id='1520'> +7.7001139e+01 </wgt>
<wgt id='1521'> +7.7067248e+01 </wgt>
<wgt id='1522'> +7.7077924e+01 </wgt>
<wgt id='1523'> +7.7058750e+01 </wgt>
<wgt id='1524'> +7.7122423e+01 </wgt>
<wgt id='1525'> +7.6961581e+01 </wgt>
<wgt id='1526'> +7.6892665e+01 </wgt>
<wgt id='1527'> +7.7026619e+01 </wgt>
<wgt id='1528'> +7.7005243e+01 </wgt>
<wgt id='1529'> +7.7020118e+01 </wgt>
<wgt id='1530'> +7.7049990e+01 </wgt>
<wgt id='1531'> +7.7026813e+01 </wgt>
<wgt id='1532'> +7.7018780e+01 </wgt>
<wgt id='1533'> +7.7027459e+01 </wgt>
<wgt id='1534'> +7.7055590e+01 </wgt>
<wgt id='1535'> +7.7028514e+01 </wgt>
<wgt id='1536'> +7.6939225e+01 </wgt>
<wgt id='1537'> +7.6969325e+01 </wgt>
<wgt id='1538'> +7.7039131e+01 </wgt>
<wgt id='1539'> +7.7018488e+01 </wgt>
<wgt id='1540'> +7.6997514e+01 </wgt>
<wgt id='1541'> +7.6975151e+01 </wgt>
<wgt id='1542'> +7.7047954e+01 </wgt>
<wgt id='1543'> +7.7025447e+01 </wgt>
<wgt id='1544'> +7.7024693e+01 </wgt>
<wgt id='1545'> +7.7045289e+01 </wgt>
<wgt id='1546'> +7.7039338e+01 </wgt>
<wgt id='1547'> +7.7045065e+01 </wgt>
<wgt id='1548'> +7.6992164e+01 </wgt>
<wgt id='1549'> +7.7019515e+01 </wgt>
<wgt id='1550'> +7.7035097e+01 </wgt>
<wgt id='1551'> +7.6996353e+01 </wgt>
<wgt id='1552'> +7.7035337e+01 </wgt>
<wgt id='1553'> +7.7001941e+01 </wgt>
<wgt id='1554'> +7.7034490e+01 </wgt>
<wgt id='1555'> +7.7018834e+01 </wgt>
<wgt id='1556'> +7.7030679e+01 </wgt>
<wgt id='1557'> +7.7014277e+01 </wgt>
<wgt id='1558'> +7.7035173e+01 </wgt>
<wgt id='1559'> +7.7025533e+01 </wgt>
<wgt id='1560'> +7.7021442e+01 </wgt>
<wgt id='1561'> +7.7014930e+01 </wgt>
<wgt id='1562'> +7.7019222e+01 </wgt>
<wgt id='1563'> +7.7013240e+01 </wgt>
<wgt id='1564'> +7.7024079e+01 </wgt>
<wgt id='1565'> +7.7020132e+01 </wgt>
<wgt id='1566'> +7.7017111e+01 </wgt>
<wgt id='1567'> +7.6296182e+01 </wgt>
<wgt id='1568'> +7.7807750e+01 </wgt>
<wgt id='1569'> +8.0897778e+01 </wgt>
<wgt id='1570'> +8.1323403e+01 </wgt>
<wgt id='1571'> +8.0330358e+01 </wgt>
<wgt id='1572'> +8.1556759e+01 </wgt>
<wgt id='1573'> +8.1768519e+01 </wgt>
<wgt id='1574'> +8.1626691e+01 </wgt>
<wgt id='1575'> +8.1416378e+01 </wgt>
<wgt id='1576'> +8.1078674e+01 </wgt>
<wgt id='1577'> +8.1054305e+01 </wgt>
<wgt id='1578'> +8.1197347e+01 </wgt>
<wgt id='1579'> +8.1121546e+01 </wgt>
<wgt id='1580'> +8.1238139e+01 </wgt>
<wgt id='1581'> +8.0434314e+01 </wgt>
<wgt id='1582'> +8.1104648e+01 </wgt>
<wgt id='1583'> +8.0293122e+01 </wgt>
<wgt id='1584'> +8.0544618e+01 </wgt>
<wgt id='1585'> +8.0633207e+01 </wgt>
<wgt id='1586'> +8.1113687e+01 </wgt>
<wgt id='1587'> +8.1108144e+01 </wgt>
<wgt id='1588'> +7.9783690e+01 </wgt>
<wgt id='1589'> +8.1200843e+01 </wgt>
<wgt id='1590'> +8.1182391e+01 </wgt>
<wgt id='1591'> +8.0822838e+01 </wgt>
<wgt id='1592'> +8.1040484e+01 </wgt>
<wgt id='1593'> +8.1237413e+01 </wgt>
<wgt id='1594'> +8.1112185e+01 </wgt>
<wgt id='1595'> +8.0743956e+01 </wgt>
<wgt id='1596'> +8.0835693e+01 </wgt>
<wgt id='1597'> +8.1153190e+01 </wgt>
<wgt id='1598'> +8.1167216e+01 </wgt>
<wgt id='1599'> +8.1171995e+01 </wgt>
<wgt id='1600'> +8.1179188e+01 </wgt>
<wgt id='1601'> +8.1209003e+01 </wgt>
<wgt id='1602'> +8.1365391e+01 </wgt>
<wgt id='1603'> +8.1178013e+01 </wgt>
<wgt id='1604'> +8.0920782e+01 </wgt>
<wgt id='1605'> +8.0960981e+01 </wgt>
<wgt id='1606'> +8.0743125e+01 </wgt>
<wgt id='1607'> +8.0883520e+01 </wgt>
<wgt id='1608'> +8.0959905e+01 </wgt>
<wgt id='1609'> +8.0916002e+01 </wgt>
<wgt id='1610'> +8.1031483e+01 </wgt>
<wgt id='1611'> +8.0988184e+01 </wgt>
<wgt id='1612'> +8.0744963e+01 </wgt>
<wgt id='1613'> +8.0847174e+01 </wgt>
<wgt id='1614'> +8.0754392e+01 </wgt>
<wgt id='1615'> +8.0843647e+01 </wgt>
<wgt id='1616'> +8.0904163e+01 </wgt>
<wgt id='1617'> +8.1013384e+01 </wgt>
<wgt id='1618'> +8.0905681e+01 </wgt>
<wgt id='1619'> +8.0950867e+01 </wgt>
<wgt id='1620'> +8.0839280e+01 </wgt>
<wgt id='1621'> +8.0757681e+01 </wgt>
<wgt id='1622'> +8.1009052e+01 </wgt>
<wgt id='1623'> +8.0849900e+01 </wgt>
<wgt id='1624'> +8.0990161e+01 </wgt>
<wgt id='1625'> +8.0990153e+01 </wgt>
<wgt id='1626'> +8.0876476e+01 </wgt>
<wgt id='1627'> +8.0901782e+01 </wgt>
<wgt id='1628'> +8.0826272e+01 </wgt>
<wgt id='1629'> +8.0814710e+01 </wgt>
<wgt id='1630'> +8.0960005e+01 </wgt>
<wgt id='1631'> +8.0886827e+01 </wgt>
<wgt id='1632'> +8.0945991e+01 </wgt>
<wgt id='1633'> +8.0889384e+01 </wgt>
<wgt id='1634'> +8.0943603e+01 </wgt>
<wgt id='1635'> +8.0877872e+01 </wgt>
<wgt id='1636'> +8.0932977e+01 </wgt>
<wgt id='1637'> +8.0970846e+01 </wgt>
<wgt id='1638'> +8.0906707e+01 </wgt>
<wgt id='1639'> +8.0883447e+01 </wgt>
<wgt id='1640'> +8.0935563e+01 </wgt>
<wgt id='1641'> +8.0903883e+01 </wgt>
<wgt id='1642'> +8.0875989e+01 </wgt>
<wgt id='1643'> +8.0934739e+01 </wgt>
<wgt id='1644'> +8.0919443e+01 </wgt>
<wgt id='1645'> +8.0865244e+01 </wgt>
<wgt id='1646'> +8.0883975e+01 </wgt>
<wgt id='1647'> +8.0897642e+01 </wgt>
<wgt id='1648'> +8.0861887e+01 </wgt>
<wgt id='1649'> +8.0945521e+01 </wgt>
<wgt id='1650'> +8.0859547e+01 </wgt>
<wgt id='1651'> +8.0909137e+01 </wgt>
<wgt id='1652'> +8.0861547e+01 </wgt>
<wgt id='1653'> +8.0892379e+01 </wgt>
<wgt id='1654'> +8.0896274e+01 </wgt>
<wgt id='1655'> +8.0893325e+01 </wgt>
<wgt id='1656'> +8.0874686e+01 </wgt>
<wgt id='1657'> +8.0893741e+01 </wgt>
<wgt id='1658'> +8.0893298e+01 </wgt>
<wgt id='1659'> +8.0908316e+01 </wgt>
<wgt id='1660'> +8.0882948e+01 </wgt>
<wgt id='1661'> +8.0904262e+01 </wgt>
<wgt id='1662'> +8.0881324e+01 </wgt>
<wgt id='1663'> +8.0920613e+01 </wgt>
<wgt id='1664'> +8.0899575e+01 </wgt>
<wgt id='1665'> +8.0880120e+01 </wgt>
<wgt id='1666'> +8.0905217e+01 </wgt>
<wgt id='1667'> +8.0884199e+01 </wgt>
<wgt id='1668'> +8.0886690e+01 </wgt>
<wgt id='1669'> +8.0908830e+01 </wgt>
<wgt id='1670'> +8.0082262e+01 </wgt>
<wgt id='1671'> +8.1526538e+01 </wgt>
<wgt id='1672'> +7.7026272e+01 </wgt>
<wgt id='1673'> +7.6263497e+01 </wgt>
<wgt id='1674'> +7.6275850e+01 </wgt>
<wgt id='1675'> +7.7016267e+01 </wgt>
<wgt id='1676'> +7.9021663e+01 </wgt>
<wgt id='1677'> +7.7455292e+01 </wgt>
<wgt id='1678'> +7.6675919e+01 </wgt>
<wgt id='1679'> +7.7037967e+01 </wgt>
<wgt id='1680'> +7.7177892e+01 </wgt>
<wgt id='1681'> +7.7197352e+01 </wgt>
<wgt id='1682'> +7.7011022e+01 </wgt>
<wgt id='1683'> +7.6382524e+01 </wgt>
<wgt id='1684'> +7.7315305e+01 </wgt>
<wgt id='1685'> +7.6980224e+01 </wgt>
<wgt id='1686'> +7.6958368e+01 </wgt>
<wgt id='1687'> +7.7190870e+01 </wgt>
<wgt id='1688'> +7.7189512e+01 </wgt>
<wgt id='1689'> +7.6399170e+01 </wgt>
<wgt id='1690'> +7.7071922e+01 </wgt>
<wgt id='1691'> +7.7228909e+01 </wgt>
<wgt id='1692'> +7.7367896e+01 </wgt>
<wgt id='1693'> +7.6810899e+01 </wgt>
<wgt id='1694'> +7.6843184e+01 </wgt>
<wgt id='1695'> +7.7081343e+01 </wgt>
<wgt id='1696'> +7.6747232e+01 </wgt>
<wgt id='1697'> +7.7104705e+01 </wgt>
<wgt id='1698'> +7.7005237e+01 </wgt>
<wgt id='1699'> +7.7150302e+01 </wgt>
<wgt id='1700'> +7.6938970e+01 </wgt>
<wgt id='1701'> +7.6710370e+01 </wgt>
<wgt id='1702'> +7.7085059e+01 </wgt>
<wgt id='1703'> +7.6296182e+01 </wgt>
<wgt id='1704'> +7.7807750e+01 </wgt>
<wgt id='1705'> +8.0902513e+01 </wgt>
<wgt id='1706'> +8.1101295e+01 </wgt>
<wgt id='1707'> +8.0915533e+01 </wgt>
<wgt id='1708'> +8.0906178e+01 </wgt>
<wgt id='1709'> +7.8781206e+01 </wgt>
<wgt id='1710'> +8.0434719e+01 </wgt>
<wgt id='1711'> +8.0915983e+01 </wgt>
<wgt id='1712'> +8.0807829e+01 </wgt>
<wgt id='1713'> +8.0931745e+01 </wgt>
<wgt id='1714'> +8.0520916e+01 </wgt>
<wgt id='1715'> +8.1053179e+01 </wgt>
<wgt id='1716'> +8.0756592e+01 </wgt>
<wgt id='1717'> +8.0885101e+01 </wgt>
<wgt id='1718'> +8.1020496e+01 </wgt>
<wgt id='1719'> +8.0844792e+01 </wgt>
<wgt id='1720'> +8.0925115e+01 </wgt>
<wgt id='1721'> +8.0872391e+01 </wgt>
<wgt id='1722'> +8.0756577e+01 </wgt>
<wgt id='1723'> +8.0942288e+01 </wgt>
<wgt id='1724'> +8.0962578e+01 </wgt>
<wgt id='1725'> +7.9945498e+01 </wgt>
<wgt id='1726'> +8.0968047e+01 </wgt>
<wgt id='1727'> +8.1250607e+01 </wgt>
<wgt id='1728'> +8.0914086e+01 </wgt>
<wgt id='1729'> +8.0940585e+01 </wgt>
<wgt id='1730'> +8.0927273e+01 </wgt>
<wgt id='1731'> +8.0982472e+01 </wgt>
<wgt id='1732'> +8.0980018e+01 </wgt>
<wgt id='1733'> +8.0968457e+01 </wgt>
<wgt id='1734'> +8.0889103e+01 </wgt>
<wgt id='1735'> +8.1102425e+01 </wgt>
<wgt id='1736'> +8.0082262e+01 </wgt>
<wgt id='1737'> +8.1526538e+01 </wgt>
<wgt id='1738'> +8.7258071e+01 </wgt>
<wgt id='1739'> +8.7403776e+01 </wgt>
<wgt id='1740'> +8.7113309e+01 </wgt>
<wgt id='1741'> +8.7279816e+01 </wgt>
<wgt id='1742'> +8.7236052e+01 </wgt>
<wgt id='1743'> +8.7290333e+01 </wgt>
<wgt id='1744'> +8.7225083e+01 </wgt>
<wgt id='1745'> +8.6970837e+01 </wgt>
<wgt id='1746'> +8.7535985e+01 </wgt>
<wgt id='1747'> +8.7609944e+01 </wgt>
<wgt id='1748'> +8.6905093e+01 </wgt>
<wgt id='1749'> +8.7408095e+01 </wgt>
<wgt id='1750'> +8.7060110e+01 </wgt>
<wgt id='1751'> +8.7036888e+01 </wgt>
<wgt id='1752'> +8.7473004e+01 </wgt>
<wgt id='1753'> +8.7131885e+01 </wgt>
<wgt id='1754'> +8.7511288e+01 </wgt>
<wgt id='1755'> +8.7072920e+01 </wgt>
<wgt id='1756'> +8.7295468e+01 </wgt>
<wgt id='1757'> +8.7205090e+01 </wgt>
<wgt id='1758'> +8.7362192e+01 </wgt>
<wgt id='1759'> +8.7589547e+01 </wgt>
<wgt id='1760'> +8.6840387e+01 </wgt>
<wgt id='1761'> +8.6714173e+01 </wgt>
<wgt id='1762'> +8.7486224e+01 </wgt>
<wgt id='1763'> +8.7730481e+01 </wgt>
<wgt id='1764'> +8.6904404e+01 </wgt>
<wgt id='1765'> +8.6823274e+01 </wgt>
<wgt id='1766'> +8.7583161e+01 </wgt>
<wgt id='1767'> +8.7258071e+01 </wgt>
<wgt id='1768'> +8.8088114e+01 </wgt>
<wgt id='1769'> +8.6240553e+01 </wgt>
<wgt id='1770'> +8.8206095e+01 </wgt>
<wgt id='1771'> +8.6560736e+01 </wgt>
<wgt id='1772'> +8.7783824e+01 </wgt>
<wgt id='1773'> +8.6899260e+01 </wgt>
<wgt id='1774'> +8.7094327e+01 </wgt>
<wgt id='1775'> +8.7431663e+01 </wgt>
<wgt id='1776'> +8.6551126e+01 </wgt>
<wgt id='1777'> +8.7987035e+01 </wgt>
<wgt id='1778'> +8.7210520e+01 </wgt>
<wgt id='1779'> +8.8034049e+01 </wgt>
<wgt id='1780'> +8.5944019e+01 </wgt>
<wgt id='1781'> +8.9665761e+01 </wgt>
<wgt id='1782'> +8.9837525e+01 </wgt>
<wgt id='1783'> +8.9527256e+01 </wgt>
<wgt id='1784'> +8.9691719e+01 </wgt>
<wgt id='1785'> +8.9672022e+01 </wgt>
<wgt id='1786'> +8.9738183e+01 </wgt>
<wgt id='1787'> +8.9625241e+01 </wgt>
<wgt id='1788'> +8.9358854e+01 </wgt>
<wgt id='1789'> +8.9989589e+01 </wgt>
<wgt id='1790'> +8.9954149e+01 </wgt>
<wgt id='1791'> +8.9400542e+01 </wgt>
<wgt id='1792'> +8.9747718e+01 </wgt>
<wgt id='1793'> +8.9614502e+01 </wgt>
<wgt id='1794'> +8.9365135e+01 </wgt>
<wgt id='1795'> +9.0005044e+01 </wgt>
<wgt id='1796'> +8.9666514e+01 </wgt>
<wgt id='1797'> +8.9889274e+01 </wgt>
<wgt id='1798'> +8.9692059e+01 </wgt>
<wgt id='1799'> +8.9652346e+01 </wgt>
<wgt id='1800'> +8.9812948e+01 </wgt>
<wgt id='1801'> +8.9542310e+01 </wgt>
<wgt id='1802'> +8.8997849e+01 </wgt>
<wgt id='1803'> +9.0269065e+01 </wgt>
<wgt id='1804'> +8.9800790e+01 </wgt>
<wgt id='1805'> +8.9580873e+01 </wgt>
<wgt id='1806'> +8.9234589e+01 </wgt>
<wgt id='1807'> +8.9942656e+01 </wgt>
<wgt id='1808'> +8.9361178e+01 </wgt>
<wgt id='1809'> +8.9892320e+01 </wgt>
<wgt id='1810'> +8.9665769e+01 </wgt>
<wgt id='1811'> +9.0565930e+01 </wgt>
<wgt id='1812'> +8.8407010e+01 </wgt>
<wgt id='1813'> +9.0666582e+01 </wgt>
<wgt id='1814'> +8.8907002e+01 </wgt>
<wgt id='1815'> +8.9716016e+01 </wgt>
<wgt id='1816'> +8.9004733e+01 </wgt>
<wgt id='1817'> +8.9509398e+01 </wgt>
<wgt id='1818'> +9.0058677e+01 </wgt>
<wgt id='1819'> +8.8133913e+01 </wgt>
<wgt id='1820'> +9.0204762e+01 </wgt>
<wgt id='1821'> +8.8534692e+01 </wgt>
<wgt id='1822'> +9.1256788e+01 </wgt>
<wgt id='1823'> +8.8201493e+01 </wgt>
<wgt id='1824'> +7.8832931e+01 </wgt>
<wgt id='1825'> +7.8809712e+01 </wgt>
<wgt id='1826'> +7.8786731e+01 </wgt>
<wgt id='1827'> +7.8763796e+01 </wgt>
<wgt id='1828'> +7.8741111e+01 </wgt>
<wgt id='1829'> +7.8717984e+01 </wgt>
<wgt id='1830'> +7.8695297e+01 </wgt>
<wgt id='1831'> +7.8672365e+01 </wgt>
<wgt id='1832'> +7.8649294e+01 </wgt>
<wgt id='1833'> +7.8626420e+01 </wgt>
<wgt id='1834'> +7.8603208e+01 </wgt>
<wgt id='1835'> +7.8580498e+01 </wgt>
<wgt id='1836'> +7.8557821e+01 </wgt>
<wgt id='1837'> +7.8534905e+01 </wgt>
<wgt id='1838'> +7.8512161e+01 </wgt>
<wgt id='1839'> +7.8488952e+01 </wgt>
<wgt id='1840'> +7.8466162e+01 </wgt>
<wgt id='1841'> +7.8442933e+01 </wgt>
<wgt id='1842'> +7.8420596e+01 </wgt>
<wgt id='1843'> +7.8397332e+01 </wgt>
<wgt id='1844'> +7.8374816e+01 </wgt>
<wgt id='1845'> +7.8351603e+01 </wgt>
<wgt id='1846'> +7.8328714e+01 </wgt>
<wgt id='1847'> +7.8305948e+01 </wgt>
<wgt id='1848'> +7.8282738e+01 </wgt>
<wgt id='1849'> +7.8260415e+01 </wgt>
<wgt id='1850'> +7.8237055e+01 </wgt>
<wgt id='1851'> +7.8214545e+01 </wgt>
<wgt id='1852'> +7.8191289e+01 </wgt>
<wgt id='1853'> +7.8168798e+01 </wgt>
<wgt id='1854'> +7.8145800e+01 </wgt>
<wgt id='1855'> +8.0501308e+01 </wgt>
<wgt id='1856'> +8.0907355e+01 </wgt>
<wgt id='1857'> +7.9931128e+01 </wgt>
<wgt id='1858'> +8.1159446e+01 </wgt>
<wgt id='1859'> +8.1364368e+01 </wgt>
<wgt id='1860'> +8.1226276e+01 </wgt>
<wgt id='1861'> +8.1030890e+01 </wgt>
<wgt id='1862'> +8.0693796e+01 </wgt>
<wgt id='1863'> +8.0657898e+01 </wgt>
<wgt id='1864'> +8.0801601e+01 </wgt>
<wgt id='1865'> +8.0720121e+01 </wgt>
<wgt id='1866'> +8.0857333e+01 </wgt>
<wgt id='1867'> +8.0048780e+01 </wgt>
<wgt id='1868'> +8.0714760e+01 </wgt>
<wgt id='1869'> +7.9897092e+01 </wgt>
<wgt id='1870'> +8.0124865e+01 </wgt>
<wgt id='1871'> +8.0256151e+01 </wgt>
<wgt id='1872'> +8.0708908e+01 </wgt>
<wgt id='1873'> +8.0706257e+01 </wgt>
<wgt id='1874'> +7.9402431e+01 </wgt>
<wgt id='1875'> +8.0816433e+01 </wgt>
<wgt id='1876'> +8.0777167e+01 </wgt>
<wgt id='1877'> +8.0422951e+01 </wgt>
<wgt id='1878'> +8.0649700e+01 </wgt>
<wgt id='1879'> +8.0831594e+01 </wgt>
<wgt id='1880'> +8.0701316e+01 </wgt>
<wgt id='1881'> +8.0334932e+01 </wgt>
<wgt id='1882'> +8.0454452e+01 </wgt>
<wgt id='1883'> +8.0760762e+01 </wgt>
<wgt id='1884'> +8.0761987e+01 </wgt>
<wgt id='1885'> +8.0767876e+01 </wgt>
<wgt id='1886'> +8.0796848e+01 </wgt>
<wgt id='1887'> +8.0805601e+01 </wgt>
<wgt id='1888'> +8.0960789e+01 </wgt>
<wgt id='1889'> +8.0779952e+01 </wgt>
<wgt id='1890'> +8.0519872e+01 </wgt>
<wgt id='1891'> +8.0565402e+01 </wgt>
<wgt id='1892'> +8.0347330e+01 </wgt>
<wgt id='1893'> +8.0485150e+01 </wgt>
<wgt id='1894'> +8.0557307e+01 </wgt>
<wgt id='1895'> +8.0519570e+01 </wgt>
<wgt id='1896'> +8.0630847e+01 </wgt>
<wgt id='1897'> +8.0589484e+01 </wgt>
<wgt id='1898'> +8.0357083e+01 </wgt>
<wgt id='1899'> +8.0449055e+01 </wgt>
<wgt id='1900'> +8.0357098e+01 </wgt>
<wgt id='1901'> +8.0451398e+01 </wgt>
<wgt id='1902'> +8.0505101e+01 </wgt>
<wgt id='1903'> +8.0618394e+01 </wgt>
<wgt id='1904'> +8.0508742e+01 </wgt>
<wgt id='1905'> +8.0555318e+01 </wgt>
<wgt id='1906'> +8.0441650e+01 </wgt>
<wgt id='1907'> +8.0361527e+01 </wgt>
<wgt id='1908'> +8.0611907e+01 </wgt>
<wgt id='1909'> +8.0455526e+01 </wgt>
<wgt id='1910'> +8.0594459e+01 </wgt>
<wgt id='1911'> +8.0588715e+01 </wgt>
<wgt id='1912'> +8.0480341e+01 </wgt>
<wgt id='1913'> +8.0508378e+01 </wgt>
<wgt id='1914'> +8.0431723e+01 </wgt>
<wgt id='1915'> +8.0421607e+01 </wgt>
<wgt id='1916'> +8.0563607e+01 </wgt>
<wgt id='1917'> +8.0490531e+01 </wgt>
<wgt id='1918'> +8.0546582e+01 </wgt>
<wgt id='1919'> +8.0494921e+01 </wgt>
<wgt id='1920'> +8.0546092e+01 </wgt>
<wgt id='1921'> +8.0480964e+01 </wgt>
<wgt id='1922'> +8.0533887e+01 </wgt>
<wgt id='1923'> +8.0573848e+01 </wgt>
<wgt id='1924'> +8.0507254e+01 </wgt>
<wgt id='1925'> +8.0486244e+01 </wgt>
<wgt id='1926'> +8.0540122e+01 </wgt>
<wgt id='1927'> +8.0506326e+01 </wgt>
<wgt id='1928'> +8.0478149e+01 </wgt>
<wgt id='1929'> +8.0537404e+01 </wgt>
<wgt id='1930'> +8.0523411e+01 </wgt>
<wgt id='1931'> +8.0472980e+01 </wgt>
<wgt id='1932'> +8.0487707e+01 </wgt>
<wgt id='1933'> +8.0502306e+01 </wgt>
<wgt id='1934'> +8.0465527e+01 </wgt>
<wgt id='1935'> +8.0545687e+01 </wgt>
<wgt id='1936'> +8.0465545e+01 </wgt>
<wgt id='1937'> +8.0513798e+01 </wgt>
<wgt id='1938'> +8.0465637e+01 </wgt>
<wgt id='1939'> +8.0494651e+01 </wgt>
<wgt id='1940'> +8.0500261e+01 </wgt>
<wgt id='1941'> +8.0499618e+01 </wgt>
<wgt id='1942'> +8.0477278e+01 </wgt>
<wgt id='1943'> +8.0494630e+01 </wgt>
<wgt id='1944'> +8.0494018e+01 </wgt>
<wgt id='1945'> +8.0510461e+01 </wgt>
<wgt id='1946'> +8.0485699e+01 </wgt>
<wgt id='1947'> +8.0505541e+01 </wgt>
<wgt id='1948'> +8.0485256e+01 </wgt>
<wgt id='1949'> +8.0520761e+01 </wgt>
<wgt id='1950'> +8.0504354e+01 </wgt>
<wgt id='1951'> +8.0485420e+01 </wgt>
<wgt id='1952'> +8.0508992e+01 </wgt>
<wgt id='1953'> +8.0487099e+01 </wgt>
<wgt id='1954'> +8.0491166e+01 </wgt>
<wgt id='1955'> +8.0513094e+01 </wgt>
<wgt id='1956'> +8.0501021e+01 </wgt>
<wgt id='1957'> +8.0502797e+01 </wgt>
<wgt id='1958'> +8.0501579e+01 </wgt>
<wgt id='1959'> +8.0501644e+01 </wgt>
<wgt id='1960'> +8.0502142e+01 </wgt>
<wgt id='1961'> +8.0501421e+01 </wgt>
<wgt id='1962'> +8.0502998e+01 </wgt>
</rwgt>
</event>
<event npLO=" -1 " npNLO=" 1 ">
 7      1 +1.5146096e+02 1.24017290e+01 7.54677110e-03 1.73229810e-01
       21 -1    0    0  501  502 +0.0000000000e+00 +0.0000000000e+00 +7.9322111000e+01 7.9322111000e+01 0.0000000000e+00 0.0000e+00 9.0000e+00
        1 -1    0    0  502    0 +0.0000000000e+00 +0.0000000000e+00 -3.6252646000e+01 3.6252646000e+01 0.0000000000e+00 0.0000e+00 9.0000e+00
       23  2    1    2    0    0 -7.8132311000e+00 +9.6310072000e+00 +2.2147099000e+01 9.1252991000e+01 8.7651648000e+01 0.0000e+00 0.0000e+00
       15  1    3    3    0    0 +2.3248660000e+01 +4.5002270000e+00 +4.0586539000e+01 4.7023156000e+01 1.7770000000e+00 0.0000e+00 9.0000e+00
      -15  1    3    3    0    0 -1.6715136000e+01 +1.4497461000e+01 -5.8123942000e+00 2.2945888000e+01 1.7770000000e+00 0.0000e+00 9.0000e+00
       22  1    3    3    0    0 -1.4346756000e+01 -9.3666807000e+00 -1.2627046000e+01 2.1283947000e+01 0.0000000000e+00 0.0000e+00 9.0000e+00
        1  1    1    2  501    0 +7.8132311000e+00 -9.6310072000e+00 +2.0922366000e+01 2.4321766000e+01 0.0000000000e+00 0.0000e+00 9.0000e+00
#aMCatNLO 1  0  0  1  2 0.13858061E+02 0.00000000E+00 -9  7  0 0.00000000E+00 0.00000000E+00 0.00000000E+00 0.00000000E+00 0.00000000E+00
<rwgt>
<wgt id='1001'> +1.5146000e+02 </wgt>
<wgt id='1002'> +1.5146000e+02 </wgt>
<wgt id='1003'> +1.3832000e+02 </wgt>
<wgt id='1004'> +1.5589000e+02 </wgt>
<wgt id='1005'> +1.5620000e+02 </wgt>
<wgt id='1006'> +1.5209000e+02 </wgt>
<wgt id='1007'> +1.3447000e+02 </wgt>
<wgt id='1008'> +1.4589000e+02 </wgt>
<wgt id='1009'> +1.5403000e+02 </wgt>
<wgt id='1010'> +1.5051000e+02 </wgt>
<wgt id='1011'> +1.5128000e+02 </wgt>
<wgt id='1012'> +1.4534000e+02 </wgt>
<wgt id='1013'> +1.4967000e+02 </wgt>
<wgt id='1014'> +1.5373000e+02 </wgt>
<wgt id='1015'> +1.5306000e+02 </wgt>
<wgt id='1016'> +1.4903000e+02 </wgt>
<wgt id='1017'> +1.5046000e+02 </wgt>
<wgt id='1018'> +1.5187000e+02 </wgt>
<wgt id='1019'> +1.4700000e+02 </wgt>
<wgt id='1020'> +1.4573000e+02 </wgt>
<wgt id='1021'> +1.5306000e+02 </wgt>
<wgt id='1022'> +1.5453000e+02 </wgt>
<wgt id='1023'> +1.5678000e+02 </wgt>
<wgt id='1024'> +1.5240000e+02 </wgt>
<wgt id='1025'> +1.6007000e+02 </wgt>
<wgt id='1026'> +1.5197000e+02 </wgt>
<wgt id='1027'> +1.5593000e+02 </wgt>
<wgt id='1028'> +1.4558000e+02 </wgt>
<wgt id='1029'> +1.5126000e+02 </wgt>
<wgt id='1030'> +1.5035000e+02 </wgt>
<wgt id='1031'> +1.5024000e+02 </wgt>
<wgt id='1032'> +1.5645000e+02 </wgt>
<wgt id='1033'> +1.5515000e+02 </wgt>
<wgt id='1034'> +1.4309000e+02 </wgt>
<wgt id='1035'> +1.5634000e+02 </wgt>
<wgt id='1036'> +1.5190000e+02 </wgt>
<wgt id='1037'> +1.5960000e+02 </wgt>
<wgt id='1038'> +1.5367000e+02 </wgt>
<wgt id='1039'> +1.5237000e+02 </wgt>
<wgt id='1040'> +1.4152000e+02 </wgt>
<wgt id='1041'> +1.4863000e+02 </wgt>
<wgt id='1042'> +1.5475000e+02 </wgt>
<wgt id='1043'> +1.5347000e+02 </wgt>
<wgt id='1044'> +1.5707000e+02 </wgt>
<wgt id='1045'> +1.5342000e+02 </wgt>
<wgt id='1046'> +1.5116000e+02 </wgt>
<wgt id='1047'> +1.5571000e+02 </wgt>
<wgt id='1048'> +1.5231000e+02 </wgt>
<wgt id='1049'> +1.4847000e+02 </wgt>
<wgt id='1050'> +1.4712000e+02 </wgt>
<wgt id='1051'> +1.5628000e+02 </wgt>
<wgt id='1052'> +1.5480000e+02 </wgt>
<wgt id='1053'> +1.5297000e+02 </wgt>
<wgt id='1054'> +1.4979000e+02 </wgt>
<wgt id='1055'> +1.4678000e+02 </wgt>
<wgt id='1056'> +1.5108000e+02 </wgt>
<wgt id='1057'> +1.5153000e+02 </wgt>
<wgt id='1058'> +1.4737000e+02 </wgt>
<wgt id='1059'> +1.5827000e+02 </wgt>
<wgt id='1060'> +1.5181000e+02 </wgt>
<wgt id='1061'> +1.5581000e+02 </wgt>
<wgt id='1062'> +1.5312000e+02 </wgt>
<wgt id='1063'> +1.5323000e+02 </wgt>
<wgt id='1064'> +1.5398000e+02 </wgt>
<wgt id='1065'> +1.5342000e+02 </wgt>
<wgt id='1066'> +1.5117000e+02 </wgt>
<wgt id='1067'> +1.5332000e+02 </wgt>
<wgt id='1068'> +1.5299000e+02 </wgt>
<wgt id='1069'> +1.5053000e+02 </wgt>
<wgt id='1070'> +1.5119000e+02 </wgt>
<wgt id='1071'> +1.4734000e+02 </wgt>
<wgt id='1072'> +1.5113000e+02 </wgt>
<wgt id='1073'> +1.5419000e+02 </wgt>
<wgt id='1074'> +1.4432000e+02 </wgt>
<wgt id='1075'> +1.3506000e+02 </wgt>
<wgt id='1076'> +1.5099000e+02 </wgt>
<wgt id='1077'> +1.5391000e+02 </wgt>
<wgt id='1078'> +1.4550000e+02 </wgt>
<wgt id='1079'> +1.5075000e+02 </wgt>
<wgt id='1080'> +1.5775000e+02 </wgt>
<wgt id='1081'> +1.4761000e+02 </wgt>
<wgt id='1082'> +1.5425000e+02 </wgt>
<wgt id='1083'> +1.5397000e+02 </wgt>
<wgt id='1084'> +1.5305000e+02 </wgt>
<wgt id='1085'> +1.4958000e+02 </wgt>
<wgt id='1086'> +1.5385000e+02 </wgt>
<wgt id='1087'> +1.5007000e+02 </wgt>
<wgt id='1088'> +1.5276000e+02 </wgt>
<wgt id='1089'> +1.5090000e+02 </wgt>
<wgt id='1090'> +1.5418000e+02 </wgt>
<wgt id='1091'> +1.5100000e+02 </wgt>
<wgt id='1092'> +1.5315000e+02 </wgt>
<wgt id='1093'> +1.5029000e+02 </wgt>
<wgt id='1094'> +1.5072000e+02 </wgt>
<wgt id='1095'> +1.5040000e+02 </wgt>
<wgt id='1096'> +1.5398000e+02 </wgt>
<wgt id='1097'> +1.5035000e+02 </wgt>
<wgt id='1098'> +1.5071000e+02 </wgt>
<wgt id='1099'> +1.5460000e+02 </wgt>
<wgt id='1100'> +1.5558000e+02 </wgt>
<wgt id='1101'> +1.5599000e+02 </wgt>
<wgt id='1102'> +1.5190000e+02 </wgt>
<wgt id='1103'> +1.4881000e+02 </wgt>
<wgt id='1104'> +1.5360000e+02 </wgt>
<wgt id='1105'> +1.5146096e+02 </wgt>
<wgt id='1106'> +6.2680446e+01 </wgt>
<wgt id='1107'> +9.5128246e+01 </wgt>
<wgt id='1108'> +1.0787260e+02 </wgt>
<wgt id='1109'> +8.7491752e+01 </wgt>
<wgt id='1110'> +1.3882574e+02 </wgt>
<wgt id='1111'> +4.7977579e+01 </wgt>
<wgt id='1112'> +4.1069078e+01 </wgt>
<wgt id='1113'> +5.7746914e+01 </wgt>
<wgt id='1114'> +8.0500454e+01 </wgt>
<wgt id='1115'> +8.1138857e+01 </wgt>
<wgt id='1116'> +7.9835151e+01 </wgt>
<wgt id='1117'> +7.7135370e+01 </wgt>
<wgt id='1118'> +7.9476019e+01 </wgt>
<wgt id='1119'> +8.3188069e+01 </wgt>
<wgt id='1120'> +8.3353797e+01 </wgt>
<wgt id='1121'> +8.1150640e+01 </wgt>
<wgt id='1122'> +7.7573742e+01 </wgt>
<wgt id='1123'> +7.9416866e+01 </wgt>
<wgt id='1124'> +8.2418400e+01 </wgt>
<wgt id='1125'> +8.1156323e+01 </wgt>
<wgt id='1126'> +7.8003627e+01 </wgt>
<wgt id='1127'> +8.0563384e+01 </wgt>
<wgt id='1128'> +7.8189182e+01 </wgt>
<wgt id='1129'> +8.1683420e+01 </wgt>
<wgt id='1130'> +8.2287429e+01 </wgt>
<wgt id='1131'> +8.3334172e+01 </wgt>
<wgt id='1132'> +8.0430576e+01 </wgt>
<wgt id='1133'> +8.1230482e+01 </wgt>
<wgt id='1134'> +8.0558634e+01 </wgt>
<wgt id='1135'> +7.8049212e+01 </wgt>
<wgt id='1136'> +8.1662093e+01 </wgt>
<wgt id='1137'> +8.2181168e+01 </wgt>
<wgt id='1138'> +7.9734392e+01 </wgt>
<wgt id='1139'> +7.8294054e+01 </wgt>
<wgt id='1140'> +7.9842170e+01 </wgt>
<wgt id='1141'> +8.3571898e+01 </wgt>
<wgt id='1142'> +7.8684400e+01 </wgt>
<wgt id='1143'> +8.1159705e+01 </wgt>
<wgt id='1144'> +8.2036296e+01 </wgt>
<wgt id='1145'> +7.9716483e+01 </wgt>
<wgt id='1146'> +7.9472785e+01 </wgt>
<wgt id='1147'> +8.1017240e+01 </wgt>
<wgt id='1148'> +7.7489662e+01 </wgt>
<wgt id='1149'> +8.2944095e+01 </wgt>
<wgt id='1150'> +7.9343295e+01 </wgt>
<wgt id='1151'> +8.3274105e+01 </wgt>
<wgt id='1152'> +8.1417546e+01 </wgt>
<wgt id='1153'> +7.9368446e+01 </wgt>
<wgt id='1154'> +7.9030348e+01 </wgt>
<wgt id='1155'> +8.1203299e+01 </wgt>
<wgt id='1156'> +7.9046289e+01 </wgt>
<wgt id='1157'> +8.1768766e+01 </wgt>
<wgt id='1158'> +8.0688589e+01 </wgt>
<wgt id='1159'> +8.0593435e+01 </wgt>
<wgt id='1160'> +8.1266583e+01 </wgt>
<wgt id='1161'> +7.9498703e+01 </wgt>
<wgt id='1162'> +7.7969400e+01 </wgt>
<wgt id='1163'> +8.2358308e+01 </wgt>
<wgt id='1164'> +8.4623036e+01 </wgt>
<wgt id='1165'> +7.9070719e+01 </wgt>
<wgt id='1166'> +8.0177330e+01 </wgt>
<wgt id='1167'> +8.0431510e+01 </wgt>
<wgt id='1168'> +7.9509353e+01 </wgt>
<wgt id='1169'> +7.8302034e+01 </wgt>
<wgt id='1170'> +8.1287287e+01 </wgt>
<wgt id='1171'> +8.2061635e+01 </wgt>
<wgt id='1172'> +8.0276685e+01 </wgt>
<wgt id='1173'> +8.1825155e+01 </wgt>
<wgt id='1174'> +8.0473750e+01 </wgt>
<wgt id='1175'> +8.1091692e+01 </wgt>
<wgt id='1176'> +8.0446718e+01 </wgt>
<wgt id='1177'> +8.3220779e+01 </wgt>
<wgt id='1178'> +7.7825267e+01 </wgt>
<wgt id='1179'> +8.1383992e+01 </wgt>
<wgt id='1180'> +7.9650804e+01 </wgt>
<wgt id='1181'> +7.9955149e+01 </wgt>
<wgt id='1182'> +8.2763657e+01 </wgt>
<wgt id='1183'> +8.0067987e+01 </wgt>
<wgt id='1184'> +7.8428680e+01 </wgt>
<wgt id='1185'> +8.1520167e+01 </wgt>
<wgt id='1186'> +8.5737157e+01 </wgt>
<wgt id='1187'> +7.9635731e+01 </wgt>
<wgt id='1188'> +8.0323101e+01 </wgt>
<wgt id='1189'> +8.0542180e+01 </wgt>
<wgt id='1190'> +7.9765120e+01 </wgt>
<wgt id='1191'> +7.9122106e+01 </wgt>
<wgt id='1192'> +7.9518627e+01 </wgt>
<wgt id='1193'> +8.0600714e+01 </wgt>
<wgt id='1194'> +8.1005797e+01 </wgt>
<wgt id='1195'> +7.9136056e+01 </wgt>
<wgt id='1196'> +8.2287429e+01 </wgt>
<wgt id='1197'> +8.0136764e+01 </wgt>
<wgt id='1198'> +8.0065414e+01 </wgt>
<wgt id='1199'> +7.8779729e+01 </wgt>
<wgt id='1200'> +8.1474583e+01 </wgt>
<wgt id='1201'> +8.0935806e+01 </wgt>
<wgt id='1202'> +8.2481002e+01 </wgt>
<wgt id='1203'> +7.8459458e+01 </wgt>
<wgt id='1204'> +7.9201893e+01 </wgt>
<wgt id='1205'> +7.9173957e+01 </wgt>
<wgt id='1206'> +7.9975344e+01 </wgt>
<wgt id='1207'> +8.1344782e+01 </wgt>
<wgt id='1208'> +8.2741535e+01 </wgt>
<wgt id='1209'> +7.8592955e+01 </wgt>
<wgt id='1210'> +7.8585176e+01 </wgt>
<wgt id='1211'> +8.0309901e+01 </wgt>
<wgt id='1212'> +8.0515963e+01 </wgt>
<wgt id='1213'> +7.8608406e+01 </wgt>
<wgt id='1214'> +8.1546286e+01 </wgt>
<wgt id='1215'> +7.7878610e+01 </wgt>
<wgt id='1216'> +7.9829182e+01 </wgt>
<wgt id='1217'> +7.9940523e+01 </wgt>
<wgt id='1218'> +7.9740507e+01 </wgt>
<wgt id='1219'> +7.9954908e+01 </wgt>
<wgt id='1220'> +8.0259943e+01 </wgt>
<wgt id='1221'> +8.0125892e+01 </wgt>
<wgt id='1222'> +7.9672147e+01 </wgt>
<wgt id='1223'> +8.0054298e+01 </wgt>
<wgt id='1224'> +7.9791561e+01 </wgt>
<wgt id='1225'> +7.9882045e+01 </wgt>
<wgt id='1226'> +7.9222802e+01 </wgt>
<wgt id='1227'> +7.9878612e+01 </wgt>
<wgt id='1228'> +8.0378575e+01 </wgt>
<wgt id='1229'> +7.9577891e+01 </wgt>
<wgt id='1230'> +8.0083635e+01 </wgt>
<wgt id='1231'> +7.9834515e+01 </wgt>
<wgt id='1232'> +8.0354223e+01 </wgt>
<wgt id='1233'> +7.9815762e+01 </wgt>
<wgt id='1234'> +8.0023661e+01 </wgt>
<wgt id='1235'> +7.9770309e+01 </wgt>
<wgt id='1236'> +7.9737604e+01 </wgt>
<wgt id='1237'> +8.0216183e+01 </wgt>
<wgt id='1238'> +7.9797223e+01 </wgt>
<wgt id='1239'> +7.9503453e+01 </wgt>
<wgt id='1240'> +8.0451872e+01 </wgt>
<wgt id='1241'> +7.9751053e+01 </wgt>
<wgt id='1242'> +7.9876460e+01 </wgt>
<wgt id='1243'> +7.9670840e+01 </wgt>
<wgt id='1244'> +7.9783175e+01 </wgt>
<wgt id='1245'> +8.0195162e+01 </wgt>
<wgt id='1246'> +8.0179696e+01 </wgt>
<wgt id='1247'> +7.9649827e+01 </wgt>
<wgt id='1248'> +7.9960869e+01 </wgt>
<wgt id='1249'> +7.9668860e+01 </wgt>
<wgt id='1250'> +7.9873615e+01 </wgt>
<wgt id='1251'> +7.9829227e+01 </wgt>
<wgt id='1252'> +7.9735012e+01 </wgt>
<wgt id='1253'> +7.9780778e+01 </wgt>
<wgt id='1254'> +7.9858033e+01 </wgt>
<wgt id='1255'> +7.9651490e+01 </wgt>
<wgt id='1256'> +7.9761727e+01 </wgt>
<wgt id='1257'> +7.9882475e+01 </wgt>
<wgt id='1258'> +7.9763361e+01 </wgt>
<wgt id='1259'> +7.9973004e+01 </wgt>
<wgt id='1260'> +7.9838963e+01 </wgt>
<wgt id='1261'> +7.9948381e+01 </wgt>
<wgt id='1262'> +7.9795552e+01 </wgt>
<wgt id='1263'> +7.9791893e+01 </wgt>
<wgt id='1264'> +7.9804844e+01 </wgt>
<wgt id='1265'> +7.9682970e+01 </wgt>
<wgt id='1266'> +7.9873506e+01 </wgt>
<wgt id='1267'> +7.9894355e+01 </wgt>
<wgt id='1268'> +7.9740501e+01 </wgt>
<wgt id='1269'> +7.9793059e+01 </wgt>
<wgt id='1270'> +7.9707509e+01 </wgt>
<wgt id='1271'> +7.9808948e+01 </wgt>
<wgt id='1272'> +7.9817085e+01 </wgt>
<wgt id='1273'> +7.9815032e+01 </wgt>
<wgt id='1274'> +7.9808451e+01 </wgt>
<wgt id='1275'> +7.9788200e+01 </wgt>
<wgt id='1276'> +7.9899346e+01 </wgt>
<wgt id='1277'> +7.9884915e+01 </wgt>
<wgt id='1278'> +7.9885815e+01 </wgt>
<wgt id='1279'> +7.9816529e+01 </wgt>
<wgt id='1280'> +7.9859283e+01 </wgt>
<wgt id='1281'> +7.9935100e+01 </wgt>
<wgt id='1282'> +7.9790188e+01 </wgt>
<wgt id='1283'> +7.9844277e+01 </wgt>
<wgt id='1284'> +7.9788958e+01 </wgt>
<wgt id='1285'> +7.9764036e+01 </wgt>
<wgt id='1286'> +7.9878637e+01 </wgt>
<wgt id='1287'> +7.9813569e+01 </wgt>
<wgt id='1288'> +7.9732565e+01 </wgt>
<wgt id='1289'> +7.9870002e+01 </wgt>
<wgt id='1290'> +7.9852224e+01 </wgt>
<wgt id='1291'> +7.9970392e+01 </wgt>
<wgt id='1292'> +7.9767921e+01 </wgt>
<wgt id='1293'> +7.9834834e+01 </wgt>
<wgt id='1294'> +7.9850319e+01 </wgt>
<wgt id='1295'> +7.9862508e+01 </wgt>
<wgt id='1296'> +7.9825284e+01 </wgt>
<wgt id='1297'> +7.9820942e+01 </wgt>
<wgt id='1298'> +7.9808202e+01 </wgt>
<wgt id='1299'> +7.9820946e+01 </wgt>
<wgt id='1300'> +7.9814667e+01 </wgt>
<wgt id='1301'> +7.9844138e+01 </wgt>
<wgt id='1302'> +7.9782199e+01 </wgt>
<wgt id='1303'> +7.9878313e+01 </wgt>
<wgt id='1304'> +7.9808140e+01 </wgt>
<wgt id='1305'> +7.9794360e+01 </wgt>
<wgt id='1306'> +7.9817119e+01 </wgt>
<wgt id='1307'> +7.9857566e+01 </wgt>
<wgt id='1308'> +7.9865893e+01 </wgt>
<wgt id='1309'> +7.9806209e+01 </wgt>
<wgt id='1310'> +7.9799776e+01 </wgt>
<wgt id='1311'> +7.9841102e+01 </wgt>
<wgt id='1312'> +7.9822430e+01 </wgt>
<wgt id='1313'> +7.9830109e+01 </wgt>
<wgt id='1314'> +7.9854737e+01 </wgt>
<wgt id='1315'> +7.9818132e+01 </wgt>
<wgt id='1316'> +7.9831634e+01 </wgt>
<wgt id='1317'> +7.7458672e+01 </wgt>
<wgt id='1318'> +8.2504068e+01 </wgt>
<wgt id='1319'> +9.2002199e+01 </wgt>
<wgt id='1320'> +7.7558412e+01 </wgt>
<wgt id='1321'> +7.8226377e+01 </wgt>
<wgt id='1322'> +7.6878557e+01 </wgt>
<wgt id='1323'> +7.9191865e+01 </wgt>
<wgt id='1324'> +7.7566622e+01 </wgt>
<wgt id='1325'> +7.8873975e+01 </wgt>
<wgt id='1326'> +7.6782006e+01 </wgt>
<wgt id='1327'> +7.8929070e+01 </wgt>
<wgt id='1328'> +7.7541926e+01 </wgt>
<wgt id='1329'> +7.6112524e+01 </wgt>
<wgt id='1330'> +7.8654344e+01 </wgt>
<wgt id='1331'> +7.7593059e+01 </wgt>
<wgt id='1332'> +7.7769283e+01 </wgt>
<wgt id='1333'> +7.4661118e+01 </wgt>
<wgt id='1334'> +7.8857327e+01 </wgt>
<wgt id='1335'> +7.8714854e+01 </wgt>
<wgt id='1336'> +7.6168454e+01 </wgt>
<wgt id='1337'> +7.8598244e+01 </wgt>
<wgt id='1338'> +7.6428168e+01 </wgt>
<wgt id='1339'> +7.8122315e+01 </wgt>
<wgt id='1340'> +7.6857528e+01 </wgt>
<wgt id='1341'> +7.7710582e+01 </wgt>
<wgt id='1342'> +7.7170691e+01 </wgt>
<wgt id='1343'> +7.8470038e+01 </wgt>
<wgt id='1344'> +7.6498822e+01 </wgt>
<wgt id='1345'> +7.6928163e+01 </wgt>
<wgt id='1346'> +7.8238323e+01 </wgt>
<wgt id='1347'> +7.6610183e+01 </wgt>
<wgt id='1348'> +7.8742774e+01 </wgt>
<wgt id='1349'> +7.7047513e+01 </wgt>
<wgt id='1350'> +7.7727487e+01 </wgt>
<wgt id='1351'> +7.7361348e+01 </wgt>
<wgt id='1352'> +7.7805018e+01 </wgt>
<wgt id='1353'> +7.7414116e+01 </wgt>
<wgt id='1354'> +7.7845092e+01 </wgt>
<wgt id='1355'> +7.9287362e+01 </wgt>
<wgt id='1356'> +7.5922596e+01 </wgt>
<wgt id='1357'> +7.7980568e+01 </wgt>
<wgt id='1358'> +7.6575540e+01 </wgt>
<wgt id='1359'> +7.6970267e+01 </wgt>
<wgt id='1360'> +7.7594228e+01 </wgt>
<wgt id='1361'> +7.7665085e+01 </wgt>
<wgt id='1362'> +7.7512327e+01 </wgt>
<wgt id='1363'> +7.8146867e+01 </wgt>
<wgt id='1364'> +7.6616246e+01 </wgt>
<wgt id='1365'> +7.6926721e+01 </wgt>
<wgt id='1366'> +7.6944090e+01 </wgt>
<wgt id='1367'> +7.6138952e+01 </wgt>
<wgt id='1368'> +7.8666740e+01 </wgt>
<wgt id='1369'> +7.7836123e+01 </wgt>
<wgt id='1370'> +7.6730294e+01 </wgt>
<wgt id='1371'> +7.6831926e+01 </wgt>
<wgt id='1372'> +7.6822848e+01 </wgt>
<wgt id='1373'> +7.5816091e+01 </wgt>
<wgt id='1374'> +7.7352213e+01 </wgt>
<wgt id='1375'> +7.6633072e+01 </wgt>
<wgt id='1376'> +7.8332896e+01 </wgt>
<wgt id='1377'> +7.4738689e+01 </wgt>
<wgt id='1378'> +8.0286145e+01 </wgt>
<wgt id='1379'> +7.7254974e+01 </wgt>
<wgt id='1380'> +7.4555135e+01 </wgt>
<wgt id='1381'> +7.9894444e+01 </wgt>
<wgt id='1382'> +7.6284171e+01 </wgt>
<wgt id='1383'> +7.7862279e+01 </wgt>
<wgt id='1384'> +7.8679864e+01 </wgt>
<wgt id='1385'> +1.0235679e+02 </wgt>
<wgt id='1386'> +1.0259108e+02 </wgt>
<wgt id='1387'> +1.0209450e+02 </wgt>
<wgt id='1388'> +1.0161017e+02 </wgt>
<wgt id='1389'> +1.0364112e+02 </wgt>
<wgt id='1390'> +1.0264024e+02 </wgt>
<wgt id='1391'> +1.0201860e+02 </wgt>
<wgt id='1392'> +1.0255098e+02 </wgt>
<wgt id='1393'> +1.0222291e+02 </wgt>
<wgt id='1394'> +1.0197543e+02 </wgt>
<wgt id='1395'> +1.0282745e+02 </wgt>
<wgt id='1396'> +1.0164086e+02 </wgt>
<wgt id='1397'> +1.0272059e+02 </wgt>
<wgt id='1398'> +1.0202292e+02 </wgt>
<wgt id='1399'> +1.0258735e+02 </wgt>
<wgt id='1400'> +1.0219802e+02 </wgt>
<wgt id='1401'> +1.0246182e+02 </wgt>
<wgt id='1402'> +1.0233128e+02 </wgt>
<wgt id='1403'> +1.0236516e+02 </wgt>
<wgt id='1404'> +1.0187218e+02 </wgt>
<wgt id='1405'> +1.0260889e+02 </wgt>
<wgt id='1406'> +1.0198483e+02 </wgt>
<wgt id='1407'> +1.0300981e+02 </wgt>
<wgt id='1408'> +1.0196253e+02 </wgt>
<wgt id='1409'> +1.0315085e+02 </wgt>
<wgt id='1410'> +1.0213811e+02 </wgt>
<wgt id='1411'> +1.0268226e+02 </wgt>
<wgt id='1412'> +1.0332482e+02 </wgt>
<wgt id='1413'> +1.0101170e+02 </wgt>
<wgt id='1414'> +1.0276143e+02 </wgt>
<wgt id='1415'> +1.0208367e+02 </wgt>
<wgt id='1416'> +1.0196908e+02 </wgt>
<wgt id='1417'> +1.0258752e+02 </wgt>
<wgt id='1418'> +1.0216958e+02 </wgt>
<wgt id='1419'> +1.0265189e+02 </wgt>
<wgt id='1420'> +1.0121982e+02 </wgt>
<wgt id='1421'> +1.0296460e+02 </wgt>
<wgt id='1422'> +1.0271751e+02 </wgt>
<wgt id='1423'> +1.0195299e+02 </wgt>
<wgt id='1424'> +1.0247122e+02 </wgt>
<wgt id='1425'> +1.0191370e+02 </wgt>
<wgt id='1426'> +1.0301827e+02 </wgt>
<wgt id='1427'> +1.0263122e+02 </wgt>
<wgt id='1428'> +1.0219261e+02 </wgt>
<wgt id='1429'> +1.0194316e+02 </wgt>
<wgt id='1430'> +1.0286203e+02 </wgt>
<wgt id='1431'> +1.0296572e+02 </wgt>
<wgt id='1432'> +1.0286684e+02 </wgt>
<wgt id='1433'> +1.0314896e+02 </wgt>
<wgt id='1434'> +1.0260691e+02 </wgt>
<wgt id='1435'> +1.0241721e+02 </wgt>
<wgt id='1436'> +7.1748101e+01 </wgt>
<wgt id='1437'> +7.1725449e+01 </wgt>
<wgt id='1438'> +7.1814723e+01 </wgt>
<wgt id='1439'> +7.1748524e+01 </wgt>
<wgt id='1440'> +7.1749680e+01 </wgt>
<wgt id='1441'> +7.2140339e+01 </wgt>
<wgt id='1442'> +7.1391044e+01 </wgt>
<wgt id='1443'> +7.1704354e+01 </wgt>
<wgt id='1444'> +7.1440488e+01 </wgt>
<wgt id='1445'> +7.1139585e+01 </wgt>
<wgt id='1446'> +7.2051622e+01 </wgt>
<wgt id='1447'> +7.1673182e+01 </wgt>
<wgt id='1448'> +7.1535027e+01 </wgt>
<wgt id='1449'> +7.1769495e+01 </wgt>
<wgt id='1450'> +7.1836405e+01 </wgt>
<wgt id='1451'> +7.1804170e+01 </wgt>
<wgt id='1452'> +7.1577710e+01 </wgt>
<wgt id='1453'> +7.1979462e+01 </wgt>
<wgt id='1454'> +7.1999300e+01 </wgt>
<wgt id='1455'> +7.1832276e+01 </wgt>
<wgt id='1456'> +7.1830461e+01 </wgt>
<wgt id='1457'> +7.2027899e+01 </wgt>
<wgt id='1458'> +7.1867280e+01 </wgt>
<wgt id='1459'> +7.1775149e+01 </wgt>
<wgt id='1460'> +7.1843189e+01 </wgt>
<wgt id='1461'> +7.1739932e+01 </wgt>
<wgt id='1462'> +7.1436862e+01 </wgt>
<wgt id='1463'> +7.1983887e+01 </wgt>
<wgt id='1464'> +7.1432268e+01 </wgt>
<wgt id='1465'> +7.5842216e+01 </wgt>
<wgt id='1466'> +7.6941815e+01 </wgt>
<wgt id='1467'> +7.6872427e+01 </wgt>
<wgt id='1468'> +7.7199989e+01 </wgt>
<wgt id='1469'> +7.7882000e+01 </wgt>
<wgt id='1470'> +7.6658509e+01 </wgt>
<wgt id='1471'> +7.6644853e+01 </wgt>
<wgt id='1472'> +7.6337611e+01 </wgt>
<wgt id='1473'> +7.7631462e+01 </wgt>
<wgt id='1474'> +7.8062187e+01 </wgt>
<wgt id='1475'> +7.6462473e+01 </wgt>
<wgt id='1476'> +7.7762649e+01 </wgt>
<wgt id='1477'> +7.6342390e+01 </wgt>
<wgt id='1478'> +7.6262782e+01 </wgt>
<wgt id='1479'> +7.6704678e+01 </wgt>
<wgt id='1480'> +7.6837300e+01 </wgt>
<wgt id='1481'> +7.6760156e+01 </wgt>
<wgt id='1482'> +7.6934332e+01 </wgt>
<wgt id='1483'> +7.7144136e+01 </wgt>
<wgt id='1484'> +7.7337835e+01 </wgt>
<wgt id='1485'> +7.6680004e+01 </wgt>
<wgt id='1486'> +7.7422309e+01 </wgt>
<wgt id='1487'> +7.6888672e+01 </wgt>
<wgt id='1488'> +7.7114964e+01 </wgt>
<wgt id='1489'> +7.6883888e+01 </wgt>
<wgt id='1490'> +7.6819479e+01 </wgt>
<wgt id='1491'> +7.6952410e+01 </wgt>
<wgt id='1492'> +7.6890554e+01 </wgt>
<wgt id='1493'> +7.6825249e+01 </wgt>
<wgt id='1494'> +7.6209832e+01 </wgt>
<wgt id='1495'> +7.6941405e+01 </wgt>
<wgt id='1496'> +7.6817526e+01 </wgt>
<wgt id='1497'> +7.6931483e+01 </wgt>
<wgt id='1498'> +7.7129455e+01 </wgt>
<wgt id='1499'> +7.6630669e+01 </wgt>
<wgt id='1500'> +7.7014411e+01 </wgt>
<wgt id='1501'> +7.7040804e+01 </wgt>
<wgt id='1502'> +7.6960620e+01 </wgt>
<wgt id='1503'> +7.7071869e+01 </wgt>
<wgt id='1504'> +7.6875389e+01 </wgt>
<wgt id='1505'> +7.7005874e+01 </wgt>
<wgt id='1506'> +7.6875904e+01 </wgt>
<wgt id='1507'> +7.6962010e+01 </wgt>
<wgt id='1508'> +7.6996797e+01 </wgt>
<wgt id='1509'> +7.6883427e+01 </wgt>
<wgt id='1510'> +7.6931732e+01 </wgt>
<wgt id='1511'> +7.7060103e+01 </wgt>
<wgt id='1512'> +7.6947489e+01 </wgt>
<wgt id='1513'> +7.6862797e+01 </wgt>
<wgt id='1514'> +7.6853002e+01 </wgt>
<wgt id='1515'> +7.6917540e+01 </wgt>
<wgt id='1516'> +7.6910998e+01 </wgt>
<wgt id='1517'> +7.6889793e+01 </wgt>
<wgt id='1518'> +7.6898437e+01 </wgt>
<wgt id='1519'> +7.6951449e+01 </wgt>
<wgt id='1520'> +7.6975278e+01 </wgt>
<wgt id='1521'> +7.6916373e+01 </wgt>
<wgt id='1522'> +7.6964940e+01 </wgt>
<wgt id='1523'> +7.6922014e+01 </wgt>
<wgt id='1524'> +7.6964982e+01 </wgt>
<wgt id='1525'> +7.6865453e+01 </wgt>
<wgt id='1526'> +7.6872497e+01 </wgt>
<wgt id='1527'> +7.6919933e+01 </wgt>
<wgt id='1528'> +7.6897106e+01 </wgt>
<wgt id='1529'> +7.6968552e+01 </wgt>
<wgt id='1530'> +7.6895928e+01 </wgt>
<wgt id='1531'> +7.6943243e+01 </wgt>
<wgt id='1532'> +7.6926312e+01 </wgt>
<wgt id='1533'> +7.6902804e+01 </wgt>
<wgt id='1534'> +7.6963637e+01 </wgt>
<wgt id='1535'> +7.6946488e+01 </wgt>
<wgt id='1536'> +7.6985063e+01 </wgt>
<wgt id='1537'> +7.6896646e+01 </wgt>
<wgt id='1538'> +7.6896437e+01 </wgt>
<wgt id='1539'> +7.6914973e+01 </wgt>
<wgt id='1540'> +7.6972815e+01 </wgt>
<wgt id='1541'> +7.6913151e+01 </wgt>
<wgt id='1542'> +7.6928553e+01 </wgt>
<wgt id='1543'> +7.6947917e+01 </wgt>
<wgt id='1544'> +7.6943415e+01 </wgt>
<wgt id='1545'> +7.6955947e+01 </wgt>
<wgt id='1546'> +7.6941133e+01 </wgt>
<wgt id='1547'> +7.6930678e+01 </wgt>
<wgt id='1548'> +7.6897728e+01 </wgt>
<wgt id='1549'> +7.6935636e+01 </wgt>
<wgt id='1550'> +7.6959066e+01 </wgt>
<wgt id='1551'> +7.6951661e+01 </wgt>
<wgt id='1552'> +7.6933687e+01 </wgt>
<wgt id='1553'> +7.6915888e+01 </wgt>
<wgt id='1554'> +7.6945871e+01 </wgt>
<wgt id='1555'> +7.6942699e+01 </wgt>
<wgt id='1556'> +7.6932988e+01 </wgt>
<wgt id='1557'> +7.6927162e+01 </wgt>
<wgt id='1558'> +7.6931310e+01 </wgt>
<wgt id='1559'> +7.6906329e+01 </wgt>
<wgt id='1560'> +7.6954028e+01 </wgt>
<wgt id='1561'> +7.6941365e+01 </wgt>
<wgt id='1562'> +7.6928680e+01 </wgt>
<wgt id='1563'> +7.6955156e+01 </wgt>
<wgt id='1564'> +7.6953725e+01 </wgt>
<wgt id='1565'> +7.6939869e+01 </wgt>
<wgt id='1566'> +7.6931524e+01 </wgt>
<wgt id='1567'> +7.4903908e+01 </wgt>
<wgt id='1568'> +7.8887518e+01 </wgt>
<wgt id='1569'> +7.7974833e+01 </wgt>
<wgt id='1570'> +7.8198174e+01 </wgt>
<wgt id='1571'> +7.8170904e+01 </wgt>
<wgt id='1572'> +7.7596895e+01 </wgt>
<wgt id='1573'> +7.8161637e+01 </wgt>
<wgt id='1574'> +7.8634982e+01 </wgt>
<wgt id='1575'> +7.7942034e+01 </wgt>
<wgt id='1576'> +7.8158583e+01 </wgt>
<wgt id='1577'> +7.8116946e+01 </wgt>
<wgt id='1578'> +7.7997815e+01 </wgt>
<wgt id='1579'> +7.7821611e+01 </wgt>
<wgt id='1580'> +7.8940056e+01 </wgt>
<wgt id='1581'> +7.7194423e+01 </wgt>
<wgt id='1582'> +7.7516198e+01 </wgt>
<wgt id='1583'> +7.7170516e+01 </wgt>
<wgt id='1584'> +7.8715955e+01 </wgt>
<wgt id='1585'> +7.7774434e+01 </wgt>
<wgt id='1586'> +7.7991272e+01 </wgt>
<wgt id='1587'> +7.8131252e+01 </wgt>
<wgt id='1588'> +7.7485988e+01 </wgt>
<wgt id='1589'> +7.8062332e+01 </wgt>
<wgt id='1590'> +7.8157339e+01 </wgt>
<wgt id='1591'> +7.7530662e+01 </wgt>
<wgt id='1592'> +7.8036960e+01 </wgt>
<wgt id='1593'> +7.7546198e+01 </wgt>
<wgt id='1594'> +7.7993348e+01 </wgt>
<wgt id='1595'> +7.7992001e+01 </wgt>
<wgt id='1596'> +7.7791456e+01 </wgt>
<wgt id='1597'> +7.8214381e+01 </wgt>
<wgt id='1598'> +7.8072375e+01 </wgt>
<wgt id='1599'> +7.7908061e+01 </wgt>
<wgt id='1600'> +7.7993416e+01 </wgt>
<wgt id='1601'> +7.7797411e+01 </wgt>
<wgt id='1602'> +7.8294560e+01 </wgt>
<wgt id='1603'> +7.7854291e+01 </wgt>
<wgt id='1604'> +7.8443044e+01 </wgt>
<wgt id='1605'> +7.7913330e+01 </wgt>
<wgt id='1606'> +7.8111482e+01 </wgt>
<wgt id='1607'> +7.7989593e+01 </wgt>
<wgt id='1608'> +7.7987715e+01 </wgt>
<wgt id='1609'> +7.7945245e+01 </wgt>
<wgt id='1610'> +7.8039179e+01 </wgt>
<wgt id='1611'> +7.7895743e+01 </wgt>
<wgt id='1612'> +7.7783405e+01 </wgt>
<wgt id='1613'> +7.7891783e+01 </wgt>
<wgt id='1614'> +7.8040567e+01 </wgt>
<wgt id='1615'> +7.7954766e+01 </wgt>
<wgt id='1616'> +7.7910234e+01 </wgt>
<wgt id='1617'> +7.8004429e+01 </wgt>
<wgt id='1618'> +7.7959569e+01 </wgt>
<wgt id='1619'> +7.8020716e+01 </wgt>
<wgt id='1620'> +7.8037334e+01 </wgt>
<wgt id='1621'> +7.7986750e+01 </wgt>
<wgt id='1622'> +7.7985218e+01 </wgt>
<wgt id='1623'> +7.7986261e+01 </wgt>
<wgt id='1624'> +7.7957858e+01 </wgt>
<wgt id='1625'> +7.7972768e+01 </wgt>
<wgt id='1626'> +7.7952087e+01 </wgt>
<wgt id='1627'> +7.7874123e+01 </wgt>
<wgt id='1628'> +7.7961923e+01 </wgt>
<wgt id='1629'> +7.7915351e+01 </wgt>
<wgt id='1630'> +7.7989035e+01 </wgt>
<wgt id='1631'> +7.7985715e+01 </wgt>
<wgt id='1632'> +7.8015347e+01 </wgt>
<wgt id='1633'> +7.7938615e+01 </wgt>
<wgt id='1634'> +7.7985456e+01 </wgt>
<wgt id='1635'> +7.8009024e+01 </wgt>
<wgt id='1636'> +7.7993293e+01 </wgt>
<wgt id='1637'> +7.7961193e+01 </wgt>
<wgt id='1638'> +7.8023937e+01 </wgt>
<wgt id='1639'> +7.7966986e+01 </wgt>
<wgt id='1640'> +7.7972285e+01 </wgt>
<wgt id='1641'> +7.8027335e+01 </wgt>
<wgt id='1642'> +7.7951940e+01 </wgt>
<wgt id='1643'> +7.7995464e+01 </wgt>
<wgt id='1644'> +7.7956000e+01 </wgt>
<wgt id='1645'> +7.7963699e+01 </wgt>
<wgt id='1646'> +7.8009525e+01 </wgt>
<wgt id='1647'> +7.7978924e+01 </wgt>
<wgt id='1648'> +7.7950774e+01 </wgt>
<wgt id='1649'> +7.7989703e+01 </wgt>
<wgt id='1650'> +7.7952416e+01 </wgt>
<wgt id='1651'> +7.7984489e+01 </wgt>
<wgt id='1652'> +7.7950527e+01 </wgt>
<wgt id='1653'> +7.7942679e+01 </wgt>
<wgt id='1654'> +7.7980808e+01 </wgt>
<wgt id='1655'> +7.7968548e+01 </wgt>
<wgt id='1656'> +7.7961370e+01 </wgt>
<wgt id='1657'> +7.7967113e+01 </wgt>
<wgt id='1658'> +7.7942072e+01 </wgt>
<wgt id='1659'> +7.8017077e+01 </wgt>
<wgt id='1660'> +7.7971428e+01 </wgt>
<wgt id='1661'> +7.7976312e+01 </wgt>
<wgt id='1662'> +7.7990999e+01 </wgt>
<wgt id='1663'> +7.7987529e+01 </wgt>
<wgt id='1664'> +7.7976039e+01 </wgt>
<wgt id='1665'> +7.7975557e+01 </wgt>
<wgt id='1666'> +7.7979565e+01 </wgt>
<wgt id='1667'> +7.7976395e+01 </wgt>
<wgt id='1668'> +7.7979545e+01 </wgt>
<wgt id='1669'> +7.7982342e+01 </wgt>
<wgt id='1670'> +7.5968046e+01 </wgt>
<wgt id='1671'> +7.9795546e+01 </wgt>
<wgt id='1672'> +7.7034625e+01 </wgt>
<wgt id='1673'> +7.7394035e+01 </wgt>
<wgt id='1674'> +7.6760223e+01 </wgt>
<wgt id='1675'> +7.7106652e+01 </wgt>
<wgt id='1676'> +7.7998339e+01 </wgt>
<wgt id='1677'> +7.8666383e+01 </wgt>
<wgt id='1678'> +7.7269289e+01 </wgt>
<wgt id='1679'> +7.7100562e+01 </wgt>
<wgt id='1680'> +7.7149836e+01 </wgt>
<wgt id='1681'> +7.7282384e+01 </wgt>
<wgt id='1682'> +7.7016378e+01 </wgt>
<wgt id='1683'> +7.6642795e+01 </wgt>
<wgt id='1684'> +7.6771094e+01 </wgt>
<wgt id='1685'> +7.7032897e+01 </wgt>
<wgt id='1686'> +7.6005673e+01 </wgt>
<wgt id='1687'> +7.7158566e+01 </wgt>
<wgt id='1688'> +7.7263664e+01 </wgt>
<wgt id='1689'> +7.6315162e+01 </wgt>
<wgt id='1690'> +7.7063311e+01 </wgt>
<wgt id='1691'> +7.6936676e+01 </wgt>
<wgt id='1692'> +7.7198356e+01 </wgt>
<wgt id='1693'> +7.7057288e+01 </wgt>
<wgt id='1694'> +7.7037971e+01 </wgt>
<wgt id='1695'> +7.7069615e+01 </wgt>
<wgt id='1696'> +7.7104475e+01 </wgt>
<wgt id='1697'> +7.6984761e+01 </wgt>
<wgt id='1698'> +7.6908327e+01 </wgt>
<wgt id='1699'> +7.6979958e+01 </wgt>
<wgt id='1700'> +7.6929055e+01 </wgt>
<wgt id='1701'> +7.6910388e+01 </wgt>
<wgt id='1702'> +7.7020406e+01 </wgt>
<wgt id='1703'> +7.4903908e+01 </wgt>
<wgt id='1704'> +7.8887518e+01 </wgt>
<wgt id='1705'> +7.7985287e+01 </wgt>
<wgt id='1706'> +7.8277039e+01 </wgt>
<wgt id='1707'> +7.9280335e+01 </wgt>
<wgt id='1708'> +7.7897883e+01 </wgt>
<wgt id='1709'> +7.7653275e+01 </wgt>
<wgt id='1710'> +7.7260294e+01 </wgt>
<wgt id='1711'> +7.7972100e+01 </wgt>
<wgt id='1712'> +7.7891803e+01 </wgt>
<wgt id='1713'> +7.7916302e+01 </wgt>
<wgt id='1714'> +7.7573231e+01 </wgt>
<wgt id='1715'> +7.8273892e+01 </wgt>
<wgt id='1716'> +7.7921489e+01 </wgt>
<wgt id='1717'> +7.8054964e+01 </wgt>
<wgt id='1718'> +7.8419823e+01 </wgt>
<wgt id='1719'> +7.7821476e+01 </wgt>
<wgt id='1720'> +7.7984100e+01 </wgt>
<wgt id='1721'> +7.7950389e+01 </wgt>
<wgt id='1722'> +7.8422131e+01 </wgt>
<wgt id='1723'> +7.8034956e+01 </wgt>
<wgt id='1724'> +7.8035857e+01 </wgt>
<wgt id='1725'> +7.7730378e+01 </wgt>
<wgt id='1726'> +7.8058080e+01 </wgt>
<wgt id='1727'> +7.8931321e+01 </wgt>
<wgt id='1728'> +7.7940987e+01 </wgt>
<wgt id='1729'> +7.7877484e+01 </wgt>
<wgt id='1730'> +7.7884534e+01 </wgt>
<wgt id='1731'> +7.7978373e+01 </wgt>
<wgt id='1732'> +7.7904973e+01 </wgt>
<wgt id='1733'> +7.7981420e+01 </wgt>
<wgt id='1734'> +7.7941657e+01 </wgt>
<wgt id='1735'> +7.8024989e+01 </wgt>
<wgt id='1736'> +7.5968046e+01 </wgt>
<wgt id='1737'> +7.9795546e+01 </wgt>
<wgt id='1738'> +8.1268440e+01 </wgt>
<wgt id='1739'> +8.1298583e+01 </wgt>
<wgt id='1740'> +8.1238413e+01 </wgt>
<wgt id='1741'> +8.1395774e+01 </wgt>
<wgt id='1742'> +8.1141206e+01 </wgt>
<wgt id='1743'> +8.1404145e+01 </wgt>
<wgt id='1744'> +8.1132894e+01 </wgt>
<wgt id='1745'> +8.1257534e+01 </wgt>
<wgt id='1746'> +8.1276560e+01 </wgt>
<wgt id='1747'> +8.1777323e+01 </wgt>
<wgt id='1748'> +8.0764522e+01 </wgt>
<wgt id='1749'> +8.1315507e+01 </wgt>
<wgt id='1750'> +8.1212341e+01 </wgt>
<wgt id='1751'> +8.1025122e+01 </wgt>
<wgt id='1752'> +8.1512529e+01 </wgt>
<wgt id='1753'> +8.1168730e+01 </wgt>
<wgt id='1754'> +8.1299233e+01 </wgt>
<wgt id='1755'> +8.1224548e+01 </wgt>
<wgt id='1756'> +8.1205558e+01 </wgt>
<wgt id='1757'> +8.1227754e+01 </wgt>
<wgt id='1758'> +8.1325990e+01 </wgt>
<wgt id='1759'> +8.1567502e+01 </wgt>
<wgt id='1760'> +8.0854604e+01 </wgt>
<wgt id='1761'> +8.1534455e+01 </wgt>
<wgt id='1762'> +8.0590924e+01 </wgt>
<wgt id='1763'> +8.1429667e+01 </wgt>
<wgt id='1764'> +8.1229947e+01 </wgt>
<wgt id='1765'> +8.1115818e+01 </wgt>
<wgt id='1766'> +8.1475475e+01 </wgt>
<wgt id='1767'> +8.1268440e+01 </wgt>
<wgt id='1768'> +8.2566052e+01 </wgt>
<wgt id='1769'> +7.9687521e+01 </wgt>
<wgt id='1770'> +8.3237980e+01 </wgt>
<wgt id='1771'> +8.1044807e+01 </wgt>
<wgt id='1772'> +8.1339547e+01 </wgt>
<wgt id='1773'> +8.0840841e+01 </wgt>
<wgt id='1774'> +8.0994405e+01 </wgt>
<wgt id='1775'> +8.1503938e+01 </wgt>
<wgt id='1776'> +8.0607318e+01 </wgt>
<wgt id='1777'> +8.1906058e+01 </wgt>
<wgt id='1778'> +8.1067112e+01 </wgt>
<wgt id='1779'> +8.2028606e+01 </wgt>
<wgt id='1780'> +7.8943321e+01 </wgt>
<wgt id='1781'> +7.8434788e+01 </wgt>
<wgt id='1782'> +7.8513677e+01 </wgt>
<wgt id='1783'> +7.8357420e+01 </wgt>
<wgt id='1784'> +7.8463297e+01 </wgt>
<wgt id='1785'> +7.8407559e+01 </wgt>
<wgt id='1786'> +7.8589251e+01 </wgt>
<wgt id='1787'> +7.8281864e+01 </wgt>
<wgt id='1788'> +7.8440551e+01 </wgt>
<wgt id='1789'> +7.8423913e+01 </wgt>
<wgt id='1790'> +7.8720177e+01 </wgt>
<wgt id='1791'> +7.8150009e+01 </wgt>
<wgt id='1792'> +7.8753137e+01 </wgt>
<wgt id='1793'> +7.8123541e+01 </wgt>
<wgt id='1794'> +7.8155999e+01 </wgt>
<wgt id='1795'> +7.8717474e+01 </wgt>
<wgt id='1796'> +7.8343010e+01 </wgt>
<wgt id='1797'> +7.8538290e+01 </wgt>
<wgt id='1798'> +7.8500334e+01 </wgt>
<wgt id='1799'> +7.8348545e+01 </wgt>
<wgt id='1800'> +7.8559201e+01 </wgt>
<wgt id='1801'> +7.8313213e+01 </wgt>
<wgt id='1802'> +7.7845950e+01 </wgt>
<wgt id='1803'> +7.8893643e+01 </wgt>
<wgt id='1804'> +7.8709347e+01 </wgt>
<wgt id='1805'> +7.8145990e+01 </wgt>
<wgt id='1806'> +7.8854223e+01 </wgt>
<wgt id='1807'> +7.7826270e+01 </wgt>
<wgt id='1808'> +7.8977457e+01 </wgt>
<wgt id='1809'> +7.7998536e+01 </wgt>
<wgt id='1810'> +7.8271929e+01 </wgt>
<wgt id='1811'> +7.9796461e+01 </wgt>
<wgt id='1812'> +7.6521163e+01 </wgt>
<wgt id='1813'> +8.0439206e+01 </wgt>
<wgt id='1814'> +7.7841980e+01 </wgt>
<wgt id='1815'> +7.8690052e+01 </wgt>
<wgt id='1816'> +7.8389837e+01 </wgt>
<wgt id='1817'> +7.8002906e+01 </wgt>
<wgt id='1818'> +7.8496886e+01 </wgt>
<wgt id='1819'> +7.7951453e+01 </wgt>
<wgt id='1820'> +7.9472632e+01 </wgt>
<wgt id='1821'> +7.8493542e+01 </wgt>
<wgt id='1822'> +7.8658483e+01 </wgt>
<wgt id='1823'> +7.7765108e+01 </wgt>
<wgt id='1824'> +7.6967374e+01 </wgt>
<wgt id='1825'> +7.6945399e+01 </wgt>
<wgt id='1826'> +7.6923118e+01 </wgt>
<wgt id='1827'> +7.6901176e+01 </wgt>
<wgt id='1828'> +7.6878890e+01 </wgt>
<wgt id='1829'> +7.6856914e+01 </wgt>
<wgt id='1830'> +7.6834840e+01 </wgt>
<wgt id='1831'> +7.6812696e+01 </wgt>
<wgt id='1832'> +7.6790403e+01 </wgt>
<wgt id='1833'> +7.6768641e+01 </wgt>
<wgt id='1834'> +7.6745924e+01 </wgt>
<wgt id='1835'> +7.6723888e+01 </wgt>
<wgt id='1836'> +7.6701873e+01 </wgt>
<wgt id='1837'> +7.6679832e+01 </wgt>
<wgt id='1838'> +7.6657457e+01 </wgt>
<wgt id='1839'> +7.6635682e+01 </wgt>
<wgt id='1840'> +7.6613481e+01 </wgt>
<wgt id='1841'> +7.6591457e+01 </wgt>
<wgt id='1842'> +7.6569115e+01 </wgt>
<wgt id='1843'> +7.6547316e+01 </wgt>
<wgt id='1844'> +7.6525128e+01 </wgt>
<wgt id='1845'> +7.6502997e+01 </wgt>
<wgt id='1846'> +7.6481005e+01 </wgt>
<wgt id='1847'> +7.6459050e+01 </wgt>
<wgt id='1848'> +7.6436825e+01 </wgt>
<wgt id='1849'> +7.6414926e+01 </wgt>
<wgt id='1850'> +7.6392688e+01 </wgt>
<wgt id='1851'> +7.6370799e+01 </wgt>
<wgt id='1852'> +7.6348639e+01 </wgt>
<wgt id='1853'> +7.6326676e+01 </wgt>
<wgt id='1854'> +7.6304426e+01 </wgt>
<wgt id='1855'> +7.7306976e+01 </wgt>
<wgt id='1856'> +7.7518985e+01 </wgt>
<wgt id='1857'> +7.7500330e+01 </wgt>
<wgt id='1858'> +7.6931523e+01 </wgt>
<wgt id='1859'> +7.7490294e+01 </wgt>
<wgt id='1860'> +7.7963228e+01 </wgt>
<wgt id='1861'> +7.7281489e+01 </wgt>
<wgt id='1862'> +7.7495979e+01 </wgt>
<wgt id='1863'> +7.7447893e+01 </wgt>
<wgt id='1864'> +7.7331219e+01 </wgt>
<wgt id='1865'> +7.7151605e+01 </wgt>
<wgt id='1866'> +7.8275115e+01 </wgt>
<wgt id='1867'> +7.6537650e+01 </wgt>
<wgt id='1868'> +7.6855653e+01 </wgt>
<wgt id='1869'> +7.6510840e+01 </wgt>
<wgt id='1870'> +7.8030107e+01 </wgt>
<wgt id='1871'> +7.7118719e+01 </wgt>
<wgt id='1872'> +7.7316013e+01 </wgt>
<wgt id='1873'> +7.7459047e+01 </wgt>
<wgt id='1874'> +7.6830108e+01 </wgt>
<wgt id='1875'> +7.7401030e+01 </wgt>
<wgt id='1876'> +7.7483328e+01 </wgt>
<wgt id='1877'> +7.6864868e+01 </wgt>
<wgt id='1878'> +7.7367770e+01 </wgt>
<wgt id='1879'> +7.6876436e+01 </wgt>
<wgt id='1880'> +7.7316260e+01 </wgt>
<wgt id='1881'> +7.7315550e+01 </wgt>
<wgt id='1882'> +7.7130732e+01 </wgt>
<wgt id='1883'> +7.7547823e+01 </wgt>
<wgt id='1884'> +7.7403750e+01 </wgt>
<wgt id='1885'> +7.7231554e+01 </wgt>
<wgt id='1886'> +7.7332679e+01 </wgt>
<wgt id='1887'> +7.7130340e+01 </wgt>
<wgt id='1888'> +7.7621294e+01 </wgt>
<wgt id='1889'> +7.7187545e+01 </wgt>
<wgt id='1890'> +7.7770483e+01 </wgt>
<wgt id='1891'> +7.7246082e+01 </wgt>
<wgt id='1892'> +7.7442772e+01 </wgt>
<wgt id='1893'> +7.7321593e+01 </wgt>
<wgt id='1894'> +7.7317089e+01 </wgt>
<wgt id='1895'> +7.7277184e+01 </wgt>
<wgt id='1896'> +7.7369591e+01 </wgt>
<wgt id='1897'> +7.7228461e+01 </wgt>
<wgt id='1898'> +7.7120852e+01 </wgt>
<wgt id='1899'> +7.7224008e+01 </wgt>
<wgt id='1900'> +7.7372139e+01 </wgt>
<wgt id='1901'> +7.7289481e+01 </wgt>
<wgt id='1902'> +7.7241646e+01 </wgt>
<wgt id='1903'> +7.7338104e+01 </wgt>
<wgt id='1904'> +7.7291831e+01 </wgt>
<wgt id='1905'> +7.7353504e+01 </wgt>
<wgt id='1906'> +7.7367914e+01 </wgt>
<wgt id='1907'> +7.7318970e+01 </wgt>
<wgt id='1908'> +7.7317572e+01 </wgt>
<wgt id='1909'> +7.7318082e+01 </wgt>
<wgt id='1910'> +7.7290712e+01 </wgt>
<wgt id='1911'> +7.7303014e+01 </wgt>
<wgt id='1912'> +7.7284997e+01 </wgt>
<wgt id='1913'> +7.7208284e+01 </wgt>
<wgt id='1914'> +7.7294814e+01 </wgt>
<wgt id='1915'> +7.7249486e+01 </wgt>
<wgt id='1916'> +7.7321623e+01 </wgt>
<wgt id='1917'> +7.7316397e+01 </wgt>
<wgt id='1918'> +7.7345831e+01 </wgt>
<wgt id='1919'> +7.7271646e+01 </wgt>
<wgt id='1920'> +7.7316516e+01 </wgt>
<wgt id='1921'> +7.7341130e+01 </wgt>
<wgt id='1922'> +7.7324142e+01 </wgt>
<wgt id='1923'> +7.7294220e+01 </wgt>
<wgt id='1924'> +7.7355207e+01 </wgt>
<wgt id='1925'> +7.7299105e+01 </wgt>
<wgt id='1926'> +7.7305111e+01 </wgt>
<wgt id='1927'> +7.7358218e+01 </wgt>
<wgt id='1928'> +7.7283626e+01 </wgt>
<wgt id='1929'> +7.7327992e+01 </wgt>
<wgt id='1930'> +7.7288288e+01 </wgt>
<wgt id='1931'> +7.7297526e+01 </wgt>
<wgt id='1932'> +7.7340963e+01 </wgt>
<wgt id='1933'> +7.7312001e+01 </wgt>
<wgt id='1934'> +7.7283616e+01 </wgt>
<wgt id='1935'> +7.7320613e+01 </wgt>
<wgt id='1936'> +7.7286375e+01 </wgt>
<wgt id='1937'> +7.7316800e+01 </wgt>
<wgt id='1938'> +7.7282771e+01 </wgt>
<wgt id='1939'> +7.7274518e+01 </wgt>
<wgt id='1940'> +7.7312838e+01 </wgt>
<wgt id='1941'> +7.7302585e+01 </wgt>
<wgt id='1942'> +7.7292483e+01 </wgt>
<wgt id='1943'> +7.7298646e+01 </wgt>
<wgt id='1944'> +7.7273988e+01 </wgt>
<wgt id='1945'> +7.7348506e+01 </wgt>
<wgt id='1946'> +7.7302440e+01 </wgt>
<wgt id='1947'> +7.7307869e+01 </wgt>
<wgt id='1948'> +7.7323243e+01 </wgt>
<wgt id='1949'> +7.7318575e+01 </wgt>
<wgt id='1950'> +7.7307810e+01 </wgt>
<wgt id='1951'> +7.7308366e+01 </wgt>
<wgt id='1952'> +7.7311740e+01 </wgt>
<wgt id='1953'> +7.7308190e+01 </wgt>
<wgt id='1954'> +7.7312417e+01 </wgt>
<wgt id='1955'> +7.7314966e+01 </wgt>
<wgt id='1956'> +7.7306346e+01 </wgt>
<wgt id='1957'> +7.7310427e+01 </wgt>
<wgt id='1958'> +7.7307640e+01 </wgt>
<wgt id='1959'> +7.7307748e+01 </wgt>
<wgt id='1960'> +7.7308917e+01 </wgt>
<wgt id='1961'> +7.7307256e+01 </wgt>
<wgt id='1962'> +7.7311156e+01 </wgt>
</rwgt>
</event>
<event npLO=" -1 " npNLO=" 1 ">
 7      1 +1.5146096e+02 1.54473770e+01 7.54677110e-03 1.61441650e-01
       21 -1    0    0  501  502 +0.0000000000e+00 +0.0000000000e+00 +6.1999527000e+00 6.1999527000e+00 0.0000000000e+00 0.0000e+00 9.0000e+00
       -2 -1    0    0    0  501 +0.0000000000e+00 +0.0000000000e+00 -4.8598421000e+02 4.8598421000e+02 0.0000000000e+00 0.0000e+00 9.0000e+00
       23  2    1    2    0    0 +1.5298101000e+01 -2.6551590000e+00 -4.3283414000e+02 4.4273322000e+02 9.1794518000e+01 0.0000e+00 0.0000e+00
       15  1    3    3    0    0 -3.7856890000e+01 +1.7339129000e+00 -2.1485086000e+02 2.1817470000e+02 1.7770000000e+00 0.0000e+00 9.0000e+00
      -15  1    3    3    0    0 +2.2802415000e+01 -3.0046889000e+00 -7.9375883000e+01 8.2659946000e+01 1.7770000000e+00 0.0000e+00 9.0000e+00
       22  1    3    3    0    0 +3.0352577000e+01 -1.3843831000e+00 -1.3860740000e+02 1.4189858000e+02 0.0000000000e+00 0.0000e+00 9.0000e+00
       -2  1    1    2    0  502 -1.5298101000e+01 +2.6551590000e+00 -4.6950116000e+01 4.9450937000e+01 0.0000000000e+00 0.0000e+00 9.0000e+00
#aMCatNLO 1  0  0  1  2 0.49375610E+01 0.00000000E+00 -9  7  0 0.00000000E+00 0.00000000E+00 0.00000000E+00 0.00000000E+00 0.00000000E+00
<rwgt>
<wgt id='1001'> +1.5146000e+02 </wgt>
<wgt id='1002'> +1.5146000e+02 </wgt>
<wgt id='1003'> +1.3351000e+02 </wgt>
<wgt id='1004'> +1.4277000e+02 </wgt>
<wgt id='1005'> +1.5480000e+02 </wgt>
<wgt id='1006'> +1.5216000e+02 </wgt>
<wgt id='1007'> +1.4937000e+02 </wgt>
<wgt id='1008'> +1.4703000e+02 </wgt>
<wgt id='1009'> +1.5553000e+02 </wgt>
<wgt id='1010'> +1.5359000e+02 </wgt>
<wgt id='1011'> +1.5382000e+02 </wgt>
<wgt id='1012'> +1.5946000e+02 </wgt>
<wgt id='1013'> +1.4966000e+02 </wgt>
<wgt id='1014'> +1.4972000e+02 </wgt>
<wgt id='1015'> +1.5375000e+02 </wgt>
<wgt id='1016'> +1.5389000e+02 </wgt>
<wgt id='1017'> +1.4983000e+02 </wgt>
<wgt id='1018'> +1.5155000e+02 </wgt>
<wgt id='1019'> +1.5073000e+02 </wgt>
<wgt id='1020'> +1.4594000e+02 </wgt>
<wgt id='1021'> +1.5048000e+02 </wgt>
<wgt id='1022'> +1.5778000e+02 </wgt>
<wgt id='1023'> +1.5321000e+02 </wgt>
<wgt id='1024'> +1.5811000e+02 </wgt>
<wgt id='1025'> +1.5588000e+02 </wgt>
<wgt id='1026'> +1.6321000e+02 </wgt>
<wgt id='1027'> +1.5298000e+02 </wgt>
<wgt id='1028'> +1.5292000e+02 </wgt>
<wgt id='1029'> +1.5084000e+02 </wgt>
<wgt id='1030'> +1.5278000e+02 </wgt>
<wgt id='1031'> +1.5077000e+02 </wgt>
<wgt id='1032'> +1.5563000e+02 </wgt>
<wgt id='1033'> +1.6241000e+02 </wgt>
<wgt id='1034'> +1.5513000e+02 </wgt>
<wgt id='1035'> +1.5176000e+02 </wgt>
<wgt id='1036'> +1.5398000e+02 </wgt>
<wgt id='1037'> +1.5947000e+02 </wgt>
<wgt id='1038'> +1.4835000e+02 </wgt>
<wgt id='1039'> +1.5492000e+02 </wgt>
<wgt id='1040'> +1.5008000e+02 </wgt>
<wgt id='1041'> +1.4686000e+02 </wgt>
<wgt id='1042'> +1.5216000e+02 </wgt>
<wgt id='1043'> +1.4208000e+02 </wgt>
<wgt id='1044'> +1.4987000e+02 </wgt>
<wgt id='1045'> +1.5686000e+02 </wgt>
<wgt id='1046'> +1.5165000e+02 </wgt>
<wgt id='1047'> +1.5263000e+02 </wgt>
<wgt id='1048'> +1.4528000e+02 </wgt>
<wgt id='1049'> +1.4716000e+02 </wgt>
<wgt id='1050'> +1.5337000e+02 </wgt>
<wgt id='1051'> +1.5233000e+02 </wgt>
<wgt id='1052'> +1.4809000e+02 </wgt>
<wgt id='1053'> +1.5027000e+02 </wgt>
<wgt id='1054'> +1.5137000e+02 </wgt>
<wgt id='1055'> +1.6056000e+02 </wgt>
<wgt id='1056'> +1.5125000e+02 </wgt>
<wgt id='1057'> +1.5418000e+02 </wgt>
<wgt id='1058'> +1.4654000e+02 </wgt>
<wgt id='1059'> +1.4315000e+02 </wgt>
<wgt id='1060'> +1.4680000e+02 </wgt>
<wgt id='1061'> +1.5604000e+02 </wgt>
<wgt id='1062'> +1.5286000e+02 </wgt>
<wgt id='1063'> +1.4925000e+02 </wgt>
<wgt id='1064'> +1.4999000e+02 </wgt>
<wgt id='1065'> +1.4906000e+02 </wgt>
<wgt id='1066'> +1.4587000e+02 </wgt>
<wgt id='1067'> +1.5452000e+02 </wgt>
<wgt id='1068'> +1.5808000e+02 </wgt>
<wgt id='1069'> +1.5639000e+02 </wgt>
<wgt id='1070'> +1.5520000e+02 </wgt>
<wgt id='1071'> +1.5879000e+02 </wgt>
<wgt id='1072'> +1.5603000e+02 </wgt>
<wgt id='1073'> +1.4900000e+02 </wgt>
<wgt id='1074'> +1.5038000e+02 </wgt>
<wgt id='1075'> +1.3837000e+02 </wgt>
<wgt id='1076'> +1.5619000e+02 </wgt>
<wgt id='1077'> +1.4526000e+02 </wgt>
<wgt id='1078'> +1.5332000e+02 </wgt>
<wgt id='1079'> +1.5483000e+02 </wgt>
<wgt id='1080'> +1.5095000e+02 </wgt>
<wgt id='1081'> +1.4680000e+02 </wgt>
<wgt id='1082'> +1.5451000e+02 </wgt>
<wgt id='1083'> +1.5278000e+02 </wgt>
<wgt id='1084'> +1.5309000e+02 </wgt>
<wgt id='1085'> +1.4746000e+02 </wgt>
<wgt id='1086'> +1.5421000e+02 </wgt>
<wgt id='1087'> +1.5049000e+02 </wgt>
<wgt id='1088'> +1.4956000e+02 </wgt>
<wgt id='1089'> +1.4754000e+02 </wgt>
<wgt id='1090'> +1.4623000e+02 </wgt>
<wgt id='1091'> +1.4354000e+02 </wgt>
<wgt id='1092'> +1.5747000e+02 </wgt>
<wgt id='1093'> +1.5033000e+02 </wgt>
<wgt id='1094'> +1.5714000e+02 </wgt>
<wgt id='1095'> +1.4877000e+02 </wgt>
<wgt id='1096'> +1.4847000e+02 </wgt>
<wgt id='1097'> +1.5133000e+02 </wgt>
<wgt id='1098'> +1.5296000e+02 </wgt>
<wgt id='1099'> +1.5058000e+02 </wgt>
<wgt id='1100'> +1.5207000e+02 </wgt>
<wgt id='1101'> +1.4428000e+02 </wgt>
<wgt id='1102'> +1.4688000e+02 </wgt>
<wgt id='1103'> +1.4821000e+02 </wgt>
<wgt id='1104'> +1.5379000e+02 </wgt>
<wgt id='1105'> +1.5146096e+02 </wgt>
<wgt id='1106'> +5.9998678e+01 </wgt>
<wgt id='1107'> +9.9757313e+01 </wgt>
<wgt id='1108'> +9.5306581e+01 </wgt>
<wgt id='1109'> +7.5186990e+01 </wgt>
<wgt id='1110'> +1.2612119e+02 </wgt>
<wgt id='1111'> +5.7239512e+01 </wgt>
<wgt id='1112'> +4.5592213e+01 </wgt>
<wgt id='1113'> +7.4962776e+01 </wgt>
<wgt id='1114'> +7.6680802e+01 </wgt>
<wgt id='1115'> +8.6246160e+01 </wgt>
<wgt id='1116'> +7.8430888e+01 </wgt>
<wgt id='1117'> +8.1326375e+01 </wgt>
<wgt id='1118'> +7.9327052e+01 </wgt>
<wgt id='1119'> +7.4366187e+01 </wgt>
<wgt id='1120'> +7.4319997e+01 </wgt>
<wgt id='1121'> +7.3855143e+01 </wgt>
<wgt id='1122'> +7.6177738e+01 </wgt>
<wgt id='1123'> +7.5781907e+01 </wgt>
<wgt id='1124'> +7.4957282e+01 </wgt>
<wgt id='1125'> +7.6474417e+01 </wgt>
<wgt id='1126'> +7.4021897e+01 </wgt>
<wgt id='1127'> +7.4886093e+01 </wgt>
<wgt id='1128'> +7.7716925e+01 </wgt>
<wgt id='1129'> +7.4727065e+01 </wgt>
<wgt id='1130'> +7.2939204e+01 </wgt>
<wgt id='1131'> +7.7931947e+01 </wgt>
<wgt id='1132'> +7.7627669e+01 </wgt>
<wgt id='1133'> +7.6158541e+01 </wgt>
<wgt id='1134'> +7.0923223e+01 </wgt>
<wgt id='1135'> +7.8195253e+01 </wgt>
<wgt id='1136'> +8.2608553e+01 </wgt>
<wgt id='1137'> +7.8206847e+01 </wgt>
<wgt id='1138'> +7.4775156e+01 </wgt>
<wgt id='1139'> +7.3658457e+01 </wgt>
<wgt id='1140'> +7.6501990e+01 </wgt>
<wgt id='1141'> +8.5908762e+01 </wgt>
<wgt id='1142'> +7.6955273e+01 </wgt>
<wgt id='1143'> +7.3085995e+01 </wgt>
<wgt id='1144'> +7.6700696e+01 </wgt>
<wgt id='1145'> +8.1056340e+01 </wgt>
<wgt id='1146'> +7.5312644e+01 </wgt>
<wgt id='1147'> +7.8773954e+01 </wgt>
<wgt id='1148'> +7.8397563e+01 </wgt>
<wgt id='1149'> +7.7063777e+01 </wgt>
<wgt id='1150'> +7.7801327e+01 </wgt>
<wgt id='1151'> +7.7346832e+01 </wgt>
<wgt id='1152'> +7.3439159e+01 </wgt>
<wgt id='1153'> +7.7487526e+01 </wgt>
<wgt id='1154'> +7.5380386e+01 </wgt>
<wgt id='1155'> +7.8059327e+01 </wgt>
<wgt id='1156'> +7.7061187e+01 </wgt>
<wgt id='1157'> +8.2445861e+01 </wgt>
<wgt id='1158'> +7.7588307e+01 </wgt>
<wgt id='1159'> +7.3486584e+01 </wgt>
<wgt id='1160'> +7.7606001e+01 </wgt>
<wgt id='1161'> +7.7916629e+01 </wgt>
<wgt id='1162'> +7.7328465e+01 </wgt>
<wgt id='1163'> +7.6379418e+01 </wgt>
<wgt id='1164'> +7.6254990e+01 </wgt>
<wgt id='1165'> +7.7372171e+01 </wgt>
<wgt id='1166'> +7.3652884e+01 </wgt>
<wgt id='1167'> +7.4925933e+01 </wgt>
<wgt id='1168'> +7.7527359e+01 </wgt>
<wgt id='1169'> +8.2556135e+01 </wgt>
<wgt id='1170'> +7.8483353e+01 </wgt>
<wgt id='1171'> +8.0022978e+01 </wgt>
<wgt id='1172'> +7.8919175e+01 </wgt>
<wgt id='1173'> +7.3660446e+01 </wgt>
<wgt id='1174'> +7.8707888e+01 </wgt>
<wgt id='1175'> +7.9655472e+01 </wgt>
<wgt id='1176'> +7.6960469e+01 </wgt>
<wgt id='1177'> +7.7880935e+01 </wgt>
<wgt id='1178'> +7.2432381e+01 </wgt>
<wgt id='1179'> +7.5945578e+01 </wgt>
<wgt id='1180'> +7.2309050e+01 </wgt>
<wgt id='1181'> +7.8633174e+01 </wgt>
<wgt id='1182'> +7.7781898e+01 </wgt>
<wgt id='1183'> +7.6569605e+01 </wgt>
<wgt id='1184'> +7.9048606e+01 </wgt>
<wgt id='1185'> +7.7352053e+01 </wgt>
<wgt id='1186'> +7.1656467e+01 </wgt>
<wgt id='1187'> +6.7683322e+01 </wgt>
<wgt id='1188'> +7.0852589e+01 </wgt>
<wgt id='1189'> +7.3400681e+01 </wgt>
<wgt id='1190'> +7.8198839e+01 </wgt>
<wgt id='1191'> +7.7970313e+01 </wgt>
<wgt id='1192'> +7.4637366e+01 </wgt>
<wgt id='1193'> +7.3455971e+01 </wgt>
<wgt id='1194'> +8.0388320e+01 </wgt>
<wgt id='1195'> +8.1600691e+01 </wgt>
<wgt id='1196'> +7.2939204e+01 </wgt>
<wgt id='1197'> +7.3541082e+01 </wgt>
<wgt id='1198'> +7.6257405e+01 </wgt>
<wgt id='1199'> +7.7559260e+01 </wgt>
<wgt id='1200'> +8.3588771e+01 </wgt>
<wgt id='1201'> +7.6235549e+01 </wgt>
<wgt id='1202'> +8.0291412e+01 </wgt>
<wgt id='1203'> +6.6577432e+01 </wgt>
<wgt id='1204'> +7.5172480e+01 </wgt>
<wgt id='1205'> +7.5684333e+01 </wgt>
<wgt id='1206'> +6.6599177e+01 </wgt>
<wgt id='1207'> +7.4831787e+01 </wgt>
<wgt id='1208'> +7.4613317e+01 </wgt>
<wgt id='1209'> +7.8965336e+01 </wgt>
<wgt id='1210'> +7.7347252e+01 </wgt>
<wgt id='1211'> +8.0955991e+01 </wgt>
<wgt id='1212'> +7.9025527e+01 </wgt>
<wgt id='1213'> +8.0221248e+01 </wgt>
<wgt id='1214'> +7.6413636e+01 </wgt>
<wgt id='1215'> +7.3587207e+01 </wgt>
<wgt id='1216'> +8.0387624e+01 </wgt>
<wgt id='1217'> +8.0265197e+01 </wgt>
<wgt id='1218'> +8.0545663e+01 </wgt>
<wgt id='1219'> +7.9901514e+01 </wgt>
<wgt id='1220'> +8.0749529e+01 </wgt>
<wgt id='1221'> +7.9768441e+01 </wgt>
<wgt id='1222'> +8.0184527e+01 </wgt>
<wgt id='1223'> +7.9876240e+01 </wgt>
<wgt id='1224'> +8.0370855e+01 </wgt>
<wgt id='1225'> +8.0071005e+01 </wgt>
<wgt id='1226'> +7.9951765e+01 </wgt>
<wgt id='1227'> +8.0448091e+01 </wgt>
<wgt id='1228'> +8.0452973e+01 </wgt>
<wgt id='1229'> +8.0537438e+01 </wgt>
<wgt id='1230'> +8.0651463e+01 </wgt>
<wgt id='1231'> +8.0108462e+01 </wgt>
<wgt id='1232'> +8.0434001e+01 </wgt>
<wgt id='1233'> +8.0284399e+01 </wgt>
<wgt id='1234'> +8.0447349e+01 </wgt>
<wgt id='1235'> +8.0346975e+01 </wgt>
<wgt id='1236'> +8.0512389e+01 </wgt>
<wgt id='1237'> +8.0622128e+01 </wgt>
<wgt id='1238'> +8.0343257e+01 </wgt>
<wgt id='1239'> +8.0535477e+01 </wgt>
<wgt id='1240'> +8.0657117e+01 </wgt>
<wgt id='1241'> +8.0361060e+01 </wgt>
<wgt id='1242'> +8.0221941e+01 </wgt>
<wgt id='1243'> +8.0737299e+01 </wgt>
<wgt id='1244'> +8.0597446e+01 </wgt>
<wgt id='1245'> +8.0448630e+01 </wgt>
<wgt id='1246'> +8.0219725e+01 </wgt>
<wgt id='1247'> +8.0940880e+01 </wgt>
<wgt id='1248'> +7.9703833e+01 </wgt>
<wgt id='1249'> +8.0412339e+01 </wgt>
<wgt id='1250'> +8.0268898e+01 </wgt>
<wgt id='1251'> +7.9707069e+01 </wgt>
<wgt id='1252'> +7.9603633e+01 </wgt>
<wgt id='1253'> +8.0233663e+01 </wgt>
<wgt id='1254'> +7.9854976e+01 </wgt>
<wgt id='1255'> +8.0260190e+01 </wgt>
<wgt id='1256'> +8.0083472e+01 </wgt>
<wgt id='1257'> +7.9850762e+01 </wgt>
<wgt id='1258'> +8.0129027e+01 </wgt>
<wgt id='1259'> +8.0897220e+01 </wgt>
<wgt id='1260'> +7.9892518e+01 </wgt>
<wgt id='1261'> +8.0056959e+01 </wgt>
<wgt id='1262'> +8.0128068e+01 </wgt>
<wgt id='1263'> +8.0594600e+01 </wgt>
<wgt id='1264'> +8.0339008e+01 </wgt>
<wgt id='1265'> +8.0182644e+01 </wgt>
<wgt id='1266'> +8.0843805e+01 </wgt>
<wgt id='1267'> +8.0971786e+01 </wgt>
<wgt id='1268'> +8.0422712e+01 </wgt>
<wgt id='1269'> +8.0329849e+01 </wgt>
<wgt id='1270'> +8.0473820e+01 </wgt>
<wgt id='1271'> +8.0258492e+01 </wgt>
<wgt id='1272'> +8.0318887e+01 </wgt>
<wgt id='1273'> +7.9945928e+01 </wgt>
<wgt id='1274'> +7.9961168e+01 </wgt>
<wgt id='1275'> +8.0759639e+01 </wgt>
<wgt id='1276'> +8.0813514e+01 </wgt>
<wgt id='1277'> +8.0420712e+01 </wgt>
<wgt id='1278'> +8.0346438e+01 </wgt>
<wgt id='1279'> +8.0713890e+01 </wgt>
<wgt id='1280'> +8.0462904e+01 </wgt>
<wgt id='1281'> +8.0283849e+01 </wgt>
<wgt id='1282'> +8.0549836e+01 </wgt>
<wgt id='1283'> +8.0468414e+01 </wgt>
<wgt id='1284'> +8.0422231e+01 </wgt>
<wgt id='1285'> +8.0251596e+01 </wgt>
<wgt id='1286'> +8.0030086e+01 </wgt>
<wgt id='1287'> +8.0357930e+01 </wgt>
<wgt id='1288'> +8.0423260e+01 </wgt>
<wgt id='1289'> +8.0078707e+01 </wgt>
<wgt id='1290'> +8.0317194e+01 </wgt>
<wgt id='1291'> +8.0101521e+01 </wgt>
<wgt id='1292'> +8.0320814e+01 </wgt>
<wgt id='1293'> +8.0410075e+01 </wgt>
<wgt id='1294'> +8.0414009e+01 </wgt>
<wgt id='1295'> +8.0235561e+01 </wgt>
<wgt id='1296'> +8.0379097e+01 </wgt>
<wgt id='1297'> +8.0484046e+01 </wgt>
<wgt id='1298'> +8.0425477e+01 </wgt>
<wgt id='1299'> +8.0488510e+01 </wgt>
<wgt id='1300'> +8.0159631e+01 </wgt>
<wgt id='1301'> +8.0409759e+01 </wgt>
<wgt id='1302'> +8.0366997e+01 </wgt>
<wgt id='1303'> +8.0531307e+01 </wgt>
<wgt id='1304'> +8.0293030e+01 </wgt>
<wgt id='1305'> +8.0118571e+01 </wgt>
<wgt id='1306'> +8.0355103e+01 </wgt>
<wgt id='1307'> +8.0557598e+01 </wgt>
<wgt id='1308'> +8.0225458e+01 </wgt>
<wgt id='1309'> +8.0299735e+01 </wgt>
<wgt id='1310'> +8.0431193e+01 </wgt>
<wgt id='1311'> +8.0573340e+01 </wgt>
<wgt id='1312'> +8.0255868e+01 </wgt>
<wgt id='1313'> +8.0371174e+01 </wgt>
<wgt id='1314'> +8.0503338e+01 </wgt>
<wgt id='1315'> +8.0591511e+01 </wgt>
<wgt id='1316'> +8.0175108e+01 </wgt>
<wgt id='1317'> +7.8690189e+01 </wgt>
<wgt id='1318'> +8.2657740e+01 </wgt>
<wgt id='1319'> +1.1383572e+02 </wgt>
<wgt id='1320'> +7.7220637e+01 </wgt>
<wgt id='1321'> +7.7661582e+01 </wgt>
<wgt id='1322'> +7.7725588e+01 </wgt>
<wgt id='1323'> +7.6017405e+01 </wgt>
<wgt id='1324'> +7.8341194e+01 </wgt>
<wgt id='1325'> +7.9731486e+01 </wgt>
<wgt id='1326'> +7.5985886e+01 </wgt>
<wgt id='1327'> +7.7431110e+01 </wgt>
<wgt id='1328'> +7.6257143e+01 </wgt>
<wgt id='1329'> +7.6801403e+01 </wgt>
<wgt id='1330'> +7.7256635e+01 </wgt>
<wgt id='1331'> +7.3752263e+01 </wgt>
<wgt id='1332'> +7.9884066e+01 </wgt>
<wgt id='1333'> +7.6284371e+01 </wgt>
<wgt id='1334'> +7.6913481e+01 </wgt>
<wgt id='1335'> +7.9149582e+01 </wgt>
<wgt id='1336'> +7.4569411e+01 </wgt>
<wgt id='1337'> +7.9139391e+01 </wgt>
<wgt id='1338'> +7.4983344e+01 </wgt>
<wgt id='1339'> +7.7262147e+01 </wgt>
<wgt id='1340'> +7.7057686e+01 </wgt>
<wgt id='1341'> +7.7597888e+01 </wgt>
<wgt id='1342'> +7.6297660e+01 </wgt>
<wgt id='1343'> +7.6575591e+01 </wgt>
<wgt id='1344'> +7.7687256e+01 </wgt>
<wgt id='1345'> +7.4760509e+01 </wgt>
<wgt id='1346'> +7.9435464e+01 </wgt>
<wgt id='1347'> +7.6459316e+01 </wgt>
<wgt id='1348'> +7.8214114e+01 </wgt>
<wgt id='1349'> +7.4447363e+01 </wgt>
<wgt id='1350'> +7.8181901e+01 </wgt>
<wgt id='1351'> +7.6627782e+01 </wgt>
<wgt id='1352'> +7.7976730e+01 </wgt>
<wgt id='1353'> +7.8051924e+01 </wgt>
<wgt id='1354'> +7.5395761e+01 </wgt>
<wgt id='1355'> +7.8903708e+01 </wgt>
<wgt id='1356'> +7.5681888e+01 </wgt>
<wgt id='1357'> +7.6268598e+01 </wgt>
<wgt id='1358'> +7.8019058e+01 </wgt>
<wgt id='1359'> +7.5351154e+01 </wgt>
<wgt id='1360'> +7.7900910e+01 </wgt>
<wgt id='1361'> +7.6035542e+01 </wgt>
<wgt id='1362'> +7.8740885e+01 </wgt>
<wgt id='1363'> +7.6619081e+01 </wgt>
<wgt id='1364'> +7.7150715e+01 </wgt>
<wgt id='1365'> +7.7131271e+01 </wgt>
<wgt id='1366'> +7.5986717e+01 </wgt>
<wgt id='1367'> +7.5248837e+01 </wgt>
<wgt id='1368'> +7.7694748e+01 </wgt>
<wgt id='1369'> +7.6109551e+01 </wgt>
<wgt id='1370'> +7.8065245e+01 </wgt>
<wgt id='1371'> +7.6166684e+01 </wgt>
<wgt id='1372'> +7.5561838e+01 </wgt>
<wgt id='1373'> +7.6566898e+01 </wgt>
<wgt id='1374'> +7.4996629e+01 </wgt>
<wgt id='1375'> +7.8042468e+01 </wgt>
<wgt id='1376'> +7.8393189e+01 </wgt>
<wgt id='1377'> +7.4222287e+01 </wgt>
<wgt id='1378'> +8.0242179e+01 </wgt>
<wgt id='1379'> +7.2119756e+01 </wgt>
<wgt id='1380'> +6.9615015e+01 </wgt>
<wgt id='1381'> +7.4779571e+01 </wgt>
<wgt id='1382'> +9.4225342e+01 </wgt>
<wgt id='1383'> +7.9055668e+01 </wgt>
<wgt id='1384'> +7.5384265e+01 </wgt>
<wgt id='1385'> +1.3291804e+02 </wgt>
<wgt id='1386'> +1.3351811e+02 </wgt>
<wgt id='1387'> +1.3224510e+02 </wgt>
<wgt id='1388'> +1.3347598e+02 </wgt>
<wgt id='1389'> +1.3191404e+02 </wgt>
<wgt id='1390'> +1.3345012e+02 </wgt>
<wgt id='1391'> +1.3227583e+02 </wgt>
<wgt id='1392'> +1.3421327e+02 </wgt>
<wgt id='1393'> +1.3200776e+02 </wgt>
<wgt id='1394'> +1.3252841e+02 </wgt>
<wgt id='1395'> +1.3339220e+02 </wgt>
<wgt id='1396'> +1.3140381e+02 </wgt>
<wgt id='1397'> +1.3369631e+02 </wgt>
<wgt id='1398'> +1.3224336e+02 </wgt>
<wgt id='1399'> +1.3341631e+02 </wgt>
<wgt id='1400'> +1.3416739e+02 </wgt>
<wgt id='1401'> +1.3194724e+02 </wgt>
<wgt id='1402'> +1.3390251e+02 </wgt>
<wgt id='1403'> +1.3247149e+02 </wgt>
<wgt id='1404'> +1.3579975e+02 </wgt>
<wgt id='1405'> +1.3147671e+02 </wgt>
<wgt id='1406'> +1.3319420e+02 </wgt>
<wgt id='1407'> +1.3240277e+02 </wgt>
<wgt id='1408'> +1.3197210e+02 </wgt>
<wgt id='1409'> +1.3479165e+02 </wgt>
<wgt id='1410'> +1.3361162e+02 </wgt>
<wgt id='1411'> +1.3109122e+02 </wgt>
<wgt id='1412'> +1.3310040e+02 </wgt>
<wgt id='1413'> +1.3236777e+02 </wgt>
<wgt id='1414'> +1.3277367e+02 </wgt>
<wgt id='1415'> +1.3306236e+02 </wgt>
<wgt id='1416'> +1.3270592e+02 </wgt>
<wgt id='1417'> +1.3358632e+02 </wgt>
<wgt id='1418'> +1.3296542e+02 </wgt>
<wgt id='1419'> +1.3285385e+02 </wgt>
<wgt id='1420'> +1.3239050e+02 </wgt>
<wgt id='1421'> +1.3274564e+02 </wgt>
<wgt id='1422'> +1.3232509e+02 </wgt>
<wgt id='1423'> +1.3374219e+02 </wgt>
<wgt id='1424'> +1.3381422e+02 </wgt>
<wgt id='1425'> +1.3105924e+02 </wgt>
<wgt id='1426'> +1.3413519e+02 </wgt>
<wgt id='1427'> +1.3214970e+02 </wgt>
<wgt id='1428'> +1.3152771e+02 </wgt>
<wgt id='1429'> +1.3180084e+02 </wgt>
<wgt id='1430'> +1.3380343e+02 </wgt>
<wgt id='1431'> +1.3287454e+02 </wgt>
<wgt id='1432'> +1.3319510e+02 </wgt>
<wgt id='1433'> +1.3357242e+02 </wgt>
<wgt id='1434'> +1.3473214e+02 </wgt>
<wgt id='1435'> +1.3482352e+02 </wgt>
<wgt id='1436'> +6.8436470e+01 </wgt>
<wgt id='1437'> +6.8500144e+01 </wgt>
<wgt id='1438'> +6.8143188e+01 </wgt>
<wgt id='1439'> +6.8438321e+01 </wgt>
<wgt id='1440'> +6.8426580e+01 </wgt>
<wgt id='1441'> +6.8796206e+01 </wgt>
<wgt id='1442'> +6.8192653e+01 </wgt>
<wgt id='1443'> +6.8773833e+01 </wgt>
<wgt id='1444'> +6.8165468e+01 </wgt>
<wgt id='1445'> +6.7928146e+01 </wgt>
<wgt id='1446'> +6.8859805e+01 </wgt>
<wgt id='1447'> +6.8485205e+01 </wgt>
<wgt id='1448'> +6.8412934e+01 </wgt>
<wgt id='1449'> +6.9076146e+01 </wgt>
<wgt id='1450'> +6.8591458e+01 </wgt>
<wgt id='1451'> +6.8544487e+01 </wgt>
<wgt id='1452'> +6.8257133e+01 </wgt>
<wgt id='1453'> +6.8547422e+01 </wgt>
<wgt id='1454'> +6.8614704e+01 </wgt>
<wgt id='1455'> +6.8497438e+01 </wgt>
<wgt id='1456'> +6.8868491e+01 </wgt>
<wgt id='1457'> +6.8360239e+01 </wgt>
<wgt id='1458'> +6.8645806e+01 </wgt>
<wgt id='1459'> +6.9073938e+01 </wgt>
<wgt id='1460'> +6.8586118e+01 </wgt>
<wgt id='1461'> +6.7903006e+01 </wgt>
<wgt id='1462'> +6.8969848e+01 </wgt>
<wgt id='1463'> +6.7100523e+01 </wgt>
<wgt id='1464'> +6.8091011e+01 </wgt>
<wgt id='1465'> +7.4895167e+01 </wgt>
<wgt id='1466'> +7.7465532e+01 </wgt>
<wgt id='1467'> +7.7880007e+01 </wgt>
<wgt id='1468'> +7.6900879e+01 </wgt>
<wgt id='1469'> +7.7872777e+01 </wgt>
<wgt id='1470'> +7.7689812e+01 </wgt>
<wgt id='1471'> +7.7629355e+01 </wgt>
<wgt id='1472'> +7.6934892e+01 </wgt>
<wgt id='1473'> +7.8433561e+01 </wgt>
<wgt id='1474'> +7.8630844e+01 </wgt>
<wgt id='1475'> +7.7468247e+01 </wgt>
<wgt id='1476'> +7.8022701e+01 </wgt>
<wgt id='1477'> +7.7108190e+01 </wgt>
<wgt id='1478'> +7.7565159e+01 </wgt>
<wgt id='1479'> +7.6412247e+01 </wgt>
<wgt id='1480'> +7.7546337e+01 </wgt>
<wgt id='1481'> +7.7474460e+01 </wgt>
<wgt id='1482'> +7.7009454e+01 </wgt>
<wgt id='1483'> +7.8254664e+01 </wgt>
<wgt id='1484'> +7.7875109e+01 </wgt>
<wgt id='1485'> +7.7173154e+01 </wgt>
<wgt id='1486'> +7.7792998e+01 </wgt>
<wgt id='1487'> +7.7360935e+01 </wgt>
<wgt id='1488'> +7.7705425e+01 </wgt>
<wgt id='1489'> +7.8178084e+01 </wgt>
<wgt id='1490'> +7.7165544e+01 </wgt>
<wgt id='1491'> +7.6127807e+01 </wgt>
<wgt id='1492'> +7.7055203e+01 </wgt>
<wgt id='1493'> +7.8346531e+01 </wgt>
<wgt id='1494'> +7.6659090e+01 </wgt>
<wgt id='1495'> +7.7478219e+01 </wgt>
<wgt id='1496'> +7.8278654e+01 </wgt>
<wgt id='1497'> +7.7190197e+01 </wgt>
<wgt id='1498'> +7.7929497e+01 </wgt>
<wgt id='1499'> +7.8047157e+01 </wgt>
<wgt id='1500'> +7.7615432e+01 </wgt>
<wgt id='1501'> +7.7917443e+01 </wgt>
<wgt id='1502'> +7.7346626e+01 </wgt>
<wgt id='1503'> +7.7659755e+01 </wgt>
<wgt id='1504'> +7.7501920e+01 </wgt>
<wgt id='1505'> +7.7736740e+01 </wgt>
<wgt id='1506'> +7.7538514e+01 </wgt>
<wgt id='1507'> +7.7584286e+01 </wgt>
<wgt id='1508'> +7.7893163e+01 </wgt>
<wgt id='1509'> +7.7337227e+01 </wgt>
<wgt id='1510'> +7.7350532e+01 </wgt>
<wgt id='1511'> +7.7859864e+01 </wgt>
<wgt id='1512'> +7.7572813e+01 </wgt>
<wgt id='1513'> +7.7289898e+01 </wgt>
<wgt id='1514'> +7.7437621e+01 </wgt>
<wgt id='1515'> +7.7326969e+01 </wgt>
<wgt id='1516'> +7.7484168e+01 </wgt>
<wgt id='1517'> +7.7607084e+01 </wgt>
<wgt id='1518'> +7.7708992e+01 </wgt>
<wgt id='1519'> +7.7333372e+01 </wgt>
<wgt id='1520'> +7.7561924e+01 </wgt>
<wgt id='1521'> +7.7427842e+01 </wgt>
<wgt id='1522'> +7.7492591e+01 </wgt>
<wgt id='1523'> +7.7480301e+01 </wgt>
<wgt id='1524'> +7.7422518e+01 </wgt>
<wgt id='1525'> +7.6835754e+01 </wgt>
<wgt id='1526'> +7.7417099e+01 </wgt>
<wgt id='1527'> +7.7704233e+01 </wgt>
<wgt id='1528'> +7.6904853e+01 </wgt>
<wgt id='1529'> +7.6998759e+01 </wgt>
<wgt id='1530'> +7.7432958e+01 </wgt>
<wgt id='1531'> +7.7426920e+01 </wgt>
<wgt id='1532'> +7.7132194e+01 </wgt>
<wgt id='1533'> +7.7509714e+01 </wgt>
<wgt id='1534'> +7.7574230e+01 </wgt>
<wgt id='1535'> +7.7561856e+01 </wgt>
<wgt id='1536'> +7.7221381e+01 </wgt>
<wgt id='1537'> +7.7545049e+01 </wgt>
<wgt id='1538'> +7.7716593e+01 </wgt>
<wgt id='1539'> +7.7664394e+01 </wgt>
<wgt id='1540'> +7.7484173e+01 </wgt>
<wgt id='1541'> +7.7479541e+01 </wgt>
<wgt id='1542'> +7.7513163e+01 </wgt>
<wgt id='1543'> +7.7613030e+01 </wgt>
<wgt id='1544'> +7.7356761e+01 </wgt>
<wgt id='1545'> +7.7845730e+01 </wgt>
<wgt id='1546'> +7.7836315e+01 </wgt>
<wgt id='1547'> +7.7544696e+01 </wgt>
<wgt id='1548'> +7.7351572e+01 </wgt>
<wgt id='1549'> +7.7442366e+01 </wgt>
<wgt id='1550'> +7.7417509e+01 </wgt>
<wgt id='1551'> +7.7312665e+01 </wgt>
<wgt id='1552'> +7.7608623e+01 </wgt>
<wgt id='1553'> +7.7446812e+01 </wgt>
<wgt id='1554'> +7.7339612e+01 </wgt>
<wgt id='1555'> +7.7391644e+01 </wgt>
<wgt id='1556'> +7.7520804e+01 </wgt>
<wgt id='1557'> +7.7392186e+01 </wgt>
<wgt id='1558'> +7.7464381e+01 </wgt>
<wgt id='1559'> +7.7285586e+01 </wgt>
<wgt id='1560'> +7.7415844e+01 </wgt>
<wgt id='1561'> +7.7433316e+01 </wgt>
<wgt id='1562'> +7.7481395e+01 </wgt>
<wgt id='1563'> +7.7508328e+01 </wgt>
<wgt id='1564'> +7.7441487e+01 </wgt>
<wgt id='1565'> +7.7593919e+01 </wgt>
<wgt id='1566'> +7.7532248e+01 </wgt>
<wgt id='1567'> +7.5126076e+01 </wgt>
<wgt id='1568'> +7.9609746e+01 </wgt>
<wgt id='1569'> +7.3971867e+01 </wgt>
<wgt id='1570'> +7.4329561e+01 </wgt>
<wgt id='1571'> +7.3808748e+01 </wgt>
<wgt id='1572'> +7.4315074e+01 </wgt>
<wgt id='1573'> +7.4282654e+01 </wgt>
<wgt id='1574'> +7.3645883e+01 </wgt>
<wgt id='1575'> +7.4209045e+01 </wgt>
<wgt id='1576'> +7.4813527e+01 </wgt>
<wgt id='1577'> +7.4323534e+01 </wgt>
<wgt id='1578'> +7.3772674e+01 </wgt>
<wgt id='1579'> +7.3805460e+01 </wgt>
<wgt id='1580'> +7.4206231e+01 </wgt>
<wgt id='1581'> +7.3405120e+01 </wgt>
<wgt id='1582'> +7.3642870e+01 </wgt>
<wgt id='1583'> +7.3892277e+01 </wgt>
<wgt id='1584'> +7.5321117e+01 </wgt>
<wgt id='1585'> +7.3573989e+01 </wgt>
<wgt id='1586'> +7.3915080e+01 </wgt>
<wgt id='1587'> +7.4640035e+01 </wgt>
<wgt id='1588'> +7.3143489e+01 </wgt>
<wgt id='1589'> +7.3407269e+01 </wgt>
<wgt id='1590'> +7.4267768e+01 </wgt>
<wgt id='1591'> +7.3077659e+01 </wgt>
<wgt id='1592'> +7.3879281e+01 </wgt>
<wgt id='1593'> +7.4384585e+01 </wgt>
<wgt id='1594'> +7.4043798e+01 </wgt>
<wgt id='1595'> +7.3795063e+01 </wgt>
<wgt id='1596'> +7.3885605e+01 </wgt>
<wgt id='1597'> +7.3741611e+01 </wgt>
<wgt id='1598'> +7.3672692e+01 </wgt>
<wgt id='1599'> +7.3933557e+01 </wgt>
<wgt id='1600'> +7.3099000e+01 </wgt>
<wgt id='1601'> +7.3929689e+01 </wgt>
<wgt id='1602'> +7.3075153e+01 </wgt>
<wgt id='1603'> +7.3407268e+01 </wgt>
<wgt id='1604'> +7.4309428e+01 </wgt>
<wgt id='1605'> +7.4202829e+01 </wgt>
<wgt id='1606'> +7.3866003e+01 </wgt>
<wgt id='1607'> +7.3887656e+01 </wgt>
<wgt id='1608'> +7.4350247e+01 </wgt>
<wgt id='1609'> +7.3631399e+01 </wgt>
<wgt id='1610'> +7.3787062e+01 </wgt>
<wgt id='1611'> +7.3629700e+01 </wgt>
<wgt id='1612'> +7.3908180e+01 </wgt>
<wgt id='1613'> +7.3847192e+01 </wgt>
<wgt id='1614'> +7.4230730e+01 </wgt>
<wgt id='1615'> +7.3830739e+01 </wgt>
<wgt id='1616'> +7.3570699e+01 </wgt>
<wgt id='1617'> +7.3792024e+01 </wgt>
<wgt id='1618'> +7.4109367e+01 </wgt>
<wgt id='1619'> +7.3948229e+01 </wgt>
<wgt id='1620'> +7.4006241e+01 </wgt>
<wgt id='1621'> +7.4057084e+01 </wgt>
<wgt id='1622'> +7.4159197e+01 </wgt>
<wgt id='1623'> +7.4010676e+01 </wgt>
<wgt id='1624'> +7.4110318e+01 </wgt>
<wgt id='1625'> +7.4103908e+01 </wgt>
<wgt id='1626'> +7.3653150e+01 </wgt>
<wgt id='1627'> +7.4062129e+01 </wgt>
<wgt id='1628'> +7.3904661e+01 </wgt>
<wgt id='1629'> +7.4222236e+01 </wgt>
<wgt id='1630'> +7.3686357e+01 </wgt>
<wgt id='1631'> +7.3938251e+01 </wgt>
<wgt id='1632'> +7.4150551e+01 </wgt>
<wgt id='1633'> +7.3523374e+01 </wgt>
<wgt id='1634'> +7.4721896e+01 </wgt>
<wgt id='1635'> +7.3622082e+01 </wgt>
<wgt id='1636'> +7.4131791e+01 </wgt>
<wgt id='1637'> +7.4440604e+01 </wgt>
<wgt id='1638'> +7.3955435e+01 </wgt>
<wgt id='1639'> +7.4043741e+01 </wgt>
<wgt id='1640'> +7.4115410e+01 </wgt>
<wgt id='1641'> +7.4332830e+01 </wgt>
<wgt id='1642'> +7.3876641e+01 </wgt>
<wgt id='1643'> +7.3925797e+01 </wgt>
<wgt id='1644'> +7.3913199e+01 </wgt>
<wgt id='1645'> +7.3892395e+01 </wgt>
<wgt id='1646'> +7.3852216e+01 </wgt>
<wgt id='1647'> +7.3799259e+01 </wgt>
<wgt id='1648'> +7.3845378e+01 </wgt>
<wgt id='1649'> +7.4240638e+01 </wgt>
<wgt id='1650'> +7.3972449e+01 </wgt>
<wgt id='1651'> +7.4039031e+01 </wgt>
<wgt id='1652'> +7.3764611e+01 </wgt>
<wgt id='1653'> +7.3876560e+01 </wgt>
<wgt id='1654'> +7.3931335e+01 </wgt>
<wgt id='1655'> +7.3960217e+01 </wgt>
<wgt id='1656'> +7.3877658e+01 </wgt>
<wgt id='1657'> +7.4015822e+01 </wgt>
<wgt id='1658'> +7.3985173e+01 </wgt>
<wgt id='1659'> +7.3995823e+01 </wgt>
<wgt id='1660'> +7.3940508e+01 </wgt>
<wgt id='1661'> +7.3892593e+01 </wgt>
<wgt id='1662'> +7.4025442e+01 </wgt>
<wgt id='1663'> +7.3774830e+01 </wgt>
<wgt id='1664'> +7.3951317e+01 </wgt>
<wgt id='1665'> +7.4095456e+01 </wgt>
<wgt id='1666'> +7.3948336e+01 </wgt>
<wgt id='1667'> +7.3857284e+01 </wgt>
<wgt id='1668'> +7.3946923e+01 </wgt>
<wgt id='1669'> +7.3969231e+01 </wgt>
<wgt id='1670'> +7.2304766e+01 </wgt>
<wgt id='1671'> +7.5894737e+01 </wgt>
<wgt id='1672'> +7.7523851e+01 </wgt>
<wgt id='1673'> +7.9134553e+01 </wgt>
<wgt id='1674'> +7.6853918e+01 </wgt>
<wgt id='1675'> +7.7470001e+01 </wgt>
<wgt id='1676'> +7.8414498e+01 </wgt>
<wgt id='1677'> +7.7696060e+01 </wgt>
<wgt id='1678'> +7.8834657e+01 </wgt>
<wgt id='1679'> +7.7486300e+01 </wgt>
<wgt id='1680'> +7.7297669e+01 </wgt>
<wgt id='1681'> +7.7978591e+01 </wgt>
<wgt id='1682'> +7.7475552e+01 </wgt>
<wgt id='1683'> +7.7853955e+01 </wgt>
<wgt id='1684'> +7.6734242e+01 </wgt>
<wgt id='1685'> +7.7265834e+01 </wgt>
<wgt id='1686'> +7.7121461e+01 </wgt>
<wgt id='1687'> +7.7200347e+01 </wgt>
<wgt id='1688'> +7.8026691e+01 </wgt>
<wgt id='1689'> +7.6095759e+01 </wgt>
<wgt id='1690'> +7.7193581e+01 </wgt>
<wgt id='1691'> +7.7337025e+01 </wgt>
<wgt id='1692'> +7.8159529e+01 </wgt>
<wgt id='1693'> +7.7615483e+01 </wgt>
<wgt id='1694'> +7.7679402e+01 </wgt>
<wgt id='1695'> +7.7631648e+01 </wgt>
<wgt id='1696'> +7.8189695e+01 </wgt>
<wgt id='1697'> +7.7360497e+01 </wgt>
<wgt id='1698'> +7.7692330e+01 </wgt>
<wgt id='1699'> +7.5855372e+01 </wgt>
<wgt id='1700'> +7.7628501e+01 </wgt>
<wgt id='1701'> +7.7565016e+01 </wgt>
<wgt id='1702'> +7.7483757e+01 </wgt>
<wgt id='1703'> +7.5126076e+01 </wgt>
<wgt id='1704'> +7.9609746e+01 </wgt>
<wgt id='1705'> +7.3967359e+01 </wgt>
<wgt id='1706'> +7.4980216e+01 </wgt>
<wgt id='1707'> +7.5083163e+01 </wgt>
<wgt id='1708'> +7.3942303e+01 </wgt>
<wgt id='1709'> +7.3813505e+01 </wgt>
<wgt id='1710'> +7.3829708e+01 </wgt>
<wgt id='1711'> +7.3968082e+01 </wgt>
<wgt id='1712'> +7.3805785e+01 </wgt>
<wgt id='1713'> +7.4214281e+01 </wgt>
<wgt id='1714'> +7.2919201e+01 </wgt>
<wgt id='1715'> +7.5187251e+01 </wgt>
<wgt id='1716'> +7.5065956e+01 </wgt>
<wgt id='1717'> +7.3811068e+01 </wgt>
<wgt id='1718'> +7.4127893e+01 </wgt>
<wgt id='1719'> +7.3883857e+01 </wgt>
<wgt id='1720'> +7.4850693e+01 </wgt>
<wgt id='1721'> +7.4100763e+01 </wgt>
<wgt id='1722'> +7.3789507e+01 </wgt>
<wgt id='1723'> +7.3973229e+01 </wgt>
<wgt id='1724'> +7.4130027e+01 </wgt>
<wgt id='1725'> +7.4005796e+01 </wgt>
<wgt id='1726'> +7.3603808e+01 </wgt>
<wgt id='1727'> +7.3991268e+01 </wgt>
<wgt id='1728'> +7.3990545e+01 </wgt>
<wgt id='1729'> +7.3671414e+01 </wgt>
<wgt id='1730'> +7.4117933e+01 </wgt>
<wgt id='1731'> +7.2164679e+01 </wgt>
<wgt id='1732'> +7.3984477e+01 </wgt>
<wgt id='1733'> +7.3697202e+01 </wgt>
<wgt id='1734'> +7.4118659e+01 </wgt>
<wgt id='1735'> +7.3758129e+01 </wgt>
<wgt id='1736'> +7.2304766e+01 </wgt>
<wgt id='1737'> +7.5894737e+01 </wgt>
<wgt id='1738'> +9.8133391e+01 </wgt>
<wgt id='1739'> +9.8364961e+01 </wgt>
<wgt id='1740'> +9.7902168e+01 </wgt>
<wgt id='1741'> +9.8005922e+01 </wgt>
<wgt id='1742'> +9.8258696e+01 </wgt>
<wgt id='1743'> +9.8274542e+01 </wgt>
<wgt id='1744'> +9.7991967e+01 </wgt>
<wgt id='1745'> +9.7088218e+01 </wgt>
<wgt id='1746'> +9.9167629e+01 </wgt>
<wgt id='1747'> +9.8839070e+01 </wgt>
<wgt id='1748'> +9.7429742e+01 </wgt>
<wgt id='1749'> +9.8577591e+01 </wgt>
<wgt id='1750'> +9.7621247e+01 </wgt>
<wgt id='1751'> +9.8420192e+01 </wgt>
<wgt id='1752'> +9.7838342e+01 </wgt>
<wgt id='1753'> +9.8217258e+01 </wgt>
<wgt id='1754'> +9.8262638e+01 </wgt>
<wgt id='1755'> +9.8707731e+01 </wgt>
<wgt id='1756'> +9.7374857e+01 </wgt>
<wgt id='1757'> +9.7872216e+01 </wgt>
<wgt id='1758'> +9.8465429e+01 </wgt>
<wgt id='1759'> +1.0072382e+02 </wgt>
<wgt id='1760'> +9.5520442e+01 </wgt>
<wgt id='1761'> +9.8174114e+01 </wgt>
<wgt id='1762'> +9.7670333e+01 </wgt>
<wgt id='1763'> +9.6186536e+01 </wgt>
<wgt id='1764'> +1.0026978e+02 </wgt>
<wgt id='1765'> +9.6064222e+01 </wgt>
<wgt id='1766'> +9.9405733e+01 </wgt>
<wgt id='1767'> +9.8133391e+01 </wgt>
<wgt id='1768'> +9.8133261e+01 </wgt>
<wgt id='1769'> +9.8273462e+01 </wgt>
<wgt id='1770'> +9.8133344e+01 </wgt>
<wgt id='1771'> +9.8224014e+01 </wgt>
<wgt id='1772'> +9.7803012e+01 </wgt>
<wgt id='1773'> +9.7329641e+01 </wgt>
<wgt id='1774'> +9.7727423e+01 </wgt>
<wgt id='1775'> +9.8532422e+01 </wgt>
<wgt id='1776'> +9.6745512e+01 </wgt>
<wgt id='1777'> +9.9587937e+01 </wgt>
<wgt id='1778'> +9.8613640e+01 </wgt>
<wgt id='1779'> +9.9164567e+01 </wgt>
<wgt id='1780'> +1.0076066e+02 </wgt>
<wgt id='1781'> +8.2139468e+01 </wgt>
<wgt id='1782'> +8.2301271e+01 </wgt>
<wgt id='1783'> +8.2004330e+01 </wgt>
<wgt id='1784'> +8.2102963e+01 </wgt>
<wgt id='1785'> +8.2200631e+01 </wgt>
<wgt id='1786'> +8.2298022e+01 </wgt>
<wgt id='1787'> +8.2007360e+01 </wgt>
<wgt id='1788'> +8.1262157e+01 </wgt>
<wgt id='1789'> +8.3027722e+01 </wgt>
<wgt id='1790'> +8.2626192e+01 </wgt>
<wgt id='1791'> +8.1669423e+01 </wgt>
<wgt id='1792'> +8.2200995e+01 </wgt>
<wgt id='1793'> +8.2103886e+01 </wgt>
<wgt id='1794'> +8.2024112e+01 </wgt>
<wgt id='1795'> +8.2290139e+01 </wgt>
<wgt id='1796'> +8.2280927e+01 </wgt>
<wgt id='1797'> +8.2278598e+01 </wgt>
<wgt id='1798'> +8.1272989e+01 </wgt>
<wgt id='1799'> +8.3024817e+01 </wgt>
<wgt id='1800'> +8.2994754e+01 </wgt>
<wgt id='1801'> +8.1312176e+01 </wgt>
<wgt id='1802'> +7.9792322e+01 </wgt>
<wgt id='1803'> +8.4496325e+01 </wgt>
<wgt id='1804'> +7.9905112e+01 </wgt>
<wgt id='1805'> +8.4474556e+01 </wgt>
<wgt id='1806'> +8.2199815e+01 </wgt>
<wgt id='1807'> +8.1691244e+01 </wgt>
<wgt id='1808'> +8.1599450e+01 </wgt>
<wgt id='1809'> +8.1785688e+01 </wgt>
<wgt id='1810'> +8.1985939e+01 </wgt>
<wgt id='1811'> +8.1687187e+01 </wgt>
<wgt id='1812'> +8.3080688e+01 </wgt>
<wgt id='1813'> +8.1846171e+01 </wgt>
<wgt id='1814'> +8.2436849e+01 </wgt>
<wgt id='1815'> +7.7243712e+01 </wgt>
<wgt id='1816'> +8.5847114e+01 </wgt>
<wgt id='1817'> +8.1678056e+01 </wgt>
<wgt id='1818'> +8.2360841e+01 </wgt>
<wgt id='1819'> +8.1604619e+01 </wgt>
<wgt id='1820'> +8.0448950e+01 </wgt>
<wgt id='1821'> +8.2874054e+01 </wgt>
<wgt id='1822'> +8.3512206e+01 </wgt>
<wgt id='1823'> +8.6869702e+01 </wgt>
<wgt id='1824'> +7.6091653e+01 </wgt>
<wgt id='1825'> +7.6053748e+01 </wgt>
<wgt id='1826'> +7.6015725e+01 </wgt>
<wgt id='1827'> +7.5978796e+01 </wgt>
<wgt id='1828'> +7.5941026e+01 </wgt>
<wgt id='1829'> +7.5903553e+01 </wgt>
<wgt id='1830'> +7.5866029e+01 </wgt>
<wgt id='1831'> +7.5828767e+01 </wgt>
<wgt id='1832'> +7.5790925e+01 </wgt>
<wgt id='1833'> +7.5753643e+01 </wgt>
<wgt id='1834'> +7.5715981e+01 </wgt>
<wgt id='1835'> +7.5678233e+01 </wgt>
<wgt id='1836'> +7.5641337e+01 </wgt>
<wgt id='1837'> +7.5603409e+01 </wgt>
<wgt id='1838'> +7.5565719e+01 </wgt>
<wgt id='1839'> +7.5527953e+01 </wgt>
<wgt id='1840'> +7.5490956e+01 </wgt>
<wgt id='1841'> +7.5452838e+01 </wgt>
<wgt id='1842'> +7.5415407e+01 </wgt>
<wgt id='1843'> +7.5378442e+01 </wgt>
<wgt id='1844'> +7.5340592e+01 </wgt>
<wgt id='1845'> +7.5303476e+01 </wgt>
<wgt id='1846'> +7.5265908e+01 </wgt>
<wgt id='1847'> +7.5228777e+01 </wgt>
<wgt id='1848'> +7.5191280e+01 </wgt>
<wgt id='1849'> +7.5153917e+01 </wgt>
<wgt id='1850'> +7.5116381e+01 </wgt>
<wgt id='1851'> +7.5078179e+01 </wgt>
<wgt id='1852'> +7.5041316e+01 </wgt>
<wgt id='1853'> +7.5003548e+01 </wgt>
<wgt id='1854'> +7.4966214e+01 </wgt>
<wgt id='1855'> +7.3253216e+01 </wgt>
<wgt id='1856'> +7.3617468e+01 </wgt>
<wgt id='1857'> +7.3100358e+01 </wgt>
<wgt id='1858'> +7.3584890e+01 </wgt>
<wgt id='1859'> +7.3561253e+01 </wgt>
<wgt id='1860'> +7.2929836e+01 </wgt>
<wgt id='1861'> +7.3477777e+01 </wgt>
<wgt id='1862'> +7.4081667e+01 </wgt>
<wgt id='1863'> +7.3600109e+01 </wgt>
<wgt id='1864'> +7.3051958e+01 </wgt>
<wgt id='1865'> +7.3085864e+01 </wgt>
<wgt id='1866'> +7.3476766e+01 </wgt>
<wgt id='1867'> +7.2688705e+01 </wgt>
<wgt id='1868'> +7.2918372e+01 </wgt>
<wgt id='1869'> +7.3178477e+01 </wgt>
<wgt id='1870'> +7.4612950e+01 </wgt>
<wgt id='1871'> +7.2850800e+01 </wgt>
<wgt id='1872'> +7.3199300e+01 </wgt>
<wgt id='1873'> +7.3920287e+01 </wgt>
<wgt id='1874'> +7.2428314e+01 </wgt>
<wgt id='1875'> +7.2682213e+01 </wgt>
<wgt id='1876'> +7.3550502e+01 </wgt>
<wgt id='1877'> +7.2368211e+01 </wgt>
<wgt id='1878'> +7.3153563e+01 </wgt>
<wgt id='1879'> +7.3665936e+01 </wgt>
<wgt id='1880'> +7.3335925e+01 </wgt>
<wgt id='1881'> +7.3085765e+01 </wgt>
<wgt id='1882'> +7.3158147e+01 </wgt>
<wgt id='1883'> +7.3020479e+01 </wgt>
<wgt id='1884'> +7.2959464e+01 </wgt>
<wgt id='1885'> +7.3218864e+01 </wgt>
<wgt id='1886'> +7.2375170e+01 </wgt>
<wgt id='1887'> +7.3215377e+01 </wgt>
<wgt id='1888'> +7.2365151e+01 </wgt>
<wgt id='1889'> +7.2692792e+01 </wgt>
<wgt id='1890'> +7.3589625e+01 </wgt>
<wgt id='1891'> +7.3481385e+01 </wgt>
<wgt id='1892'> +7.3146773e+01 </wgt>
<wgt id='1893'> +7.3170835e+01 </wgt>
<wgt id='1894'> +7.3631998e+01 </wgt>
<wgt id='1895'> +7.2915631e+01 </wgt>
<wgt id='1896'> +7.3072248e+01 </wgt>
<wgt id='1897'> +7.2917393e+01 </wgt>
<wgt id='1898'> +7.3183416e+01 </wgt>
<wgt id='1899'> +7.3131647e+01 </wgt>
<wgt id='1900'> +7.3513787e+01 </wgt>
<wgt id='1901'> +7.3112870e+01 </wgt>
<wgt id='1902'> +7.2862993e+01 </wgt>
<wgt id='1903'> +7.3073309e+01 </wgt>
<wgt id='1904'> +7.3391902e+01 </wgt>
<wgt id='1905'> +7.3227743e+01 </wgt>
<wgt id='1906'> +7.3289102e+01 </wgt>
<wgt id='1907'> +7.3339355e+01 </wgt>
<wgt id='1908'> +7.3437389e+01 </wgt>
<wgt id='1909'> +7.3291557e+01 </wgt>
<wgt id='1910'> +7.3389653e+01 </wgt>
<wgt id='1911'> +7.3384781e+01 </wgt>
<wgt id='1912'> +7.2935555e+01 </wgt>
<wgt id='1913'> +7.3341002e+01 </wgt>
<wgt id='1914'> +7.3184074e+01 </wgt>
<wgt id='1915'> +7.3500139e+01 </wgt>
<wgt id='1916'> +7.2967289e+01 </wgt>
<wgt id='1917'> +7.3220833e+01 </wgt>
<wgt id='1918'> +7.3433280e+01 </wgt>
<wgt id='1919'> +7.2805326e+01 </wgt>
<wgt id='1920'> +7.3999467e+01 </wgt>
<wgt id='1921'> +7.2905146e+01 </wgt>
<wgt id='1922'> +7.3413327e+01 </wgt>
<wgt id='1923'> +7.3718875e+01 </wgt>
<wgt id='1924'> +7.3238286e+01 </wgt>
<wgt id='1925'> +7.3326609e+01 </wgt>
<wgt id='1926'> +7.3395393e+01 </wgt>
<wgt id='1927'> +7.3613934e+01 </wgt>
<wgt id='1928'> +7.3158676e+01 </wgt>
<wgt id='1929'> +7.3205688e+01 </wgt>
<wgt id='1930'> +7.3194866e+01 </wgt>
<wgt id='1931'> +7.3171435e+01 </wgt>
<wgt id='1932'> +7.3131043e+01 </wgt>
<wgt id='1933'> +7.3079873e+01 </wgt>
<wgt id='1934'> +7.3128431e+01 </wgt>
<wgt id='1935'> +7.3523466e+01 </wgt>
<wgt id='1936'> +7.3251646e+01 </wgt>
<wgt id='1937'> +7.3318967e+01 </wgt>
<wgt id='1938'> +7.3045484e+01 </wgt>
<wgt id='1939'> +7.3159562e+01 </wgt>
<wgt id='1940'> +7.3211327e+01 </wgt>
<wgt id='1941'> +7.3240167e+01 </wgt>
<wgt id='1942'> +7.3160090e+01 </wgt>
<wgt id='1943'> +7.3298034e+01 </wgt>
<wgt id='1944'> +7.3267831e+01 </wgt>
<wgt id='1945'> +7.3277815e+01 </wgt>
<wgt id='1946'> +7.3223511e+01 </wgt>
<wgt id='1947'> +7.3174477e+01 </wgt>
<wgt id='1948'> +7.3306707e+01 </wgt>
<wgt id='1949'> +7.3057292e+01 </wgt>
<wgt id='1950'> +7.3232271e+01 </wgt>
<wgt id='1951'> +7.3376798e+01 </wgt>
<wgt id='1952'> +7.3229959e+01 </wgt>
<wgt id='1953'> +7.3138534e+01 </wgt>
<wgt id='1954'> +7.3228680e+01 </wgt>
<wgt id='1955'> +7.3250451e+01 </wgt>
<wgt id='1956'> +7.3252696e+01 </wgt>
<wgt id='1957'> +7.3256038e+01 </wgt>
<wgt id='1958'> +7.3253761e+01 </wgt>
<wgt id='1959'> +7.3253852e+01 </wgt>
<wgt id='1960'> +7.3254807e+01 </wgt>
<wgt id='1961'> +7.3253443e+01 </wgt>
<wgt id='1962'> +7.3256660e+01 </wgt>
</rwgt>
</event>
<event npLO=" -1 " npNLO=" 1 ">
 7      1 -1.5146096e+02 1.20019610e+01 7.54677110e-03 1.39968960e-01
       21 -1    0    0  501  502 +0.0000000000e+00 +0.0000000000e+00 +1.1810459000e+02 1.1810459000e+02 0.0000000000e+00 0.0000e+00 9.0000e+00
       -3 -1    0    0    0  501 +0.0000000000e+00 +0.0000000000e+00 -2.2325669000e+01 2.2325669000e+01 0.0000000000e+00 0.0000e+00 9.0000e+00
       23  2    1    2    0    0 -7.1382823000e+00 +9.6484194000e+00 +8.3163513000e+01 1.2301775000e+02 8.9850704000e+01 0.0000e+00 0.0000e+00
       15  1    3    3    0    0 +6.8791270000e+00 +2.5498133000e+01 +6.2249081000e+01 6.7643055000e+01 1.7770000000e+00 0.0000e+00 9.0000e+00
      -15  1    3    3    0    0 +3.6905674000e+00 -2.8561765000e+01 +1.6133614000e+01 3.3058220000e+01 1.7770000000e+00 0.0000e+00 9.0000e+00
       22  1    3    3    0    0 -1.7707977000e+01 +1.2712051000e+01 +4.7808187000e+00 2.2316472000e+01 0.0000000000e+00 0.0000e+00 9.0000e+00
       -3  1    1    2    0  502 +7.1382823000e+00 -9.6484194000e+00 +1.2615411000e+01 1.7412515000e+01 0.0000000000e+00 0.0000e+00 9.0000e+00
#aMCatNLO 1  0  0  2  2 0.34885499E+02 0.00000000E+00 -9  7  0 0.00000000E+00 0.00000000E+00 0.00000000E+00 0.00000000E+00 0.00000000E+00
<rwgt>
<wgt id='1001'> -1.5146000e+02 </wgt>
<wgt id='1002'> -1.5146000e+02 </wgt>
<wgt id='1003'> -1.3536000e+02 </wgt>
<wgt id='1004'> -1.5017000e+02 </wgt>
<wgt id='1005'> -1.4733000e+02 </wgt>
<wgt id='1006'> -1.4796000e+02 </wgt>
<wgt id='1007'> -1.2855000e+02 </wgt>
<wgt id='1008'> -1.5430000e+02 </wgt>
<wgt id='1009'> -1.5110000e+02 </wgt>
<wgt id='1010'> -1.5080000e+02 </wgt>
<wgt id='1011'> -1.5233000e+02 </wgt>
<wgt id='1012'> -1.5712000e+02 </wgt>
<wgt id='1013'> -1.3721000e+02 </wgt>
<wgt id='1014'> -1.5393000e+02 </wgt>
<wgt id='1015'> -1.5432000e+02 </wgt>
<wgt id='1016'> -1.4641000e+02 </wgt>
<wgt id='1017'> -1.5327000e+02 </wgt>
<wgt id='1018'> -1.5384000e+02 </wgt>
<wgt id='1019'> -1.5249000e+02 </wgt>
<wgt id='1020'> -1.5236000e+02 </wgt>
<wgt id='1021'> -1.5272000e+02 </wgt>
<wgt id='1022'> -1.4925000e+02 </wgt>
<wgt id='1023'> -1.4854000e+02 </wgt>
<wgt id='1024'> -1.4500000e+02 </wgt>
<wgt id='1025'> -1.6237000e+02 </wgt>
<wgt id='1026'> -1.4527000e+02 </wgt>
<wgt id='1027'> -1.5032000e+02 </wgt>
<wgt id='1028'> -1.5694000e+02 </wgt>
<wgt id='1029'> -1.4625000e+02 </wgt>
<wgt id='1030'> -1.5032000e+02 </wgt>
<wgt id='1031'> -1.4711000e+02 </wgt>
<wgt id='1032'> -1.5269000e+02 </wgt>
<wgt id='1033'> -1.4902000e+02 </wgt>
<wgt id='1034'> -1.5382000e+02 </wgt>
<wgt id='1035'> -1.6001000e+02 </wgt>
<wgt id='1036'> -1.5602000e+02 </wgt>
<wgt id='1037'> -1.5307000e+02 </wgt>
<wgt id='1038'> -1.5405000e+02 </wgt>
<wgt id='1039'> -1.5193000e+02 </wgt>
<wgt id='1040'> -1.4928000e+02 </wgt>
<wgt id='1041'> -1.4558000e+02 </wgt>
<wgt id='1042'> -1.5170000e+02 </wgt>
<wgt id='1043'> -1.4955000e+02 </wgt>
<wgt id='1044'> -1.5327000e+02 </wgt>
<wgt id='1045'> -1.5237000e+02 </wgt>
<wgt id='1046'> -1.5303000e+02 </wgt>
<wgt id='1047'> -1.5785000e+02 </wgt>
<wgt id='1048'> -1.5223000e+02 </wgt>
<wgt id='1049'> -1.5486000e+02 </wgt>
<wgt id='1050'> -1.5041000e+02 </wgt>
<wgt id='1051'> -1.5296000e+02 </wgt>
<wgt id='1052'> -1.4942000e+02 </wgt>
<wgt id='1053'> -1.5234000e+02 </wgt>
<wgt id='1054'> -1.5238000e+02 </wgt>
<wgt id='1055'> -1.6685000e+02 </wgt>
<wgt id='1056'> -1.5247000e+02 </wgt>
<wgt id='1057'> -1.5296000e+02 </wgt>
<wgt id='1058'> -1.4787000e+02 </wgt>
<wgt id='1059'> -1.5745000e+02 </wgt>
<wgt id='1060'> -1.4749000e+02 </wgt>
<wgt id='1061'> -1.5315000e+02 </wgt>
<wgt id='1062'> -1.5105000e+02 </wgt>
<wgt id='1063'> -1.5671000e+02 </wgt>
<wgt id='1064'> -1.4876000e+02 </wgt>
<wgt id='1065'> -1.5395000e+02 </wgt>
<wgt id='1066'> -1.5136000e+02 </wgt>
<wgt id='1067'> -1.5387000e+02 </wgt>
<wgt id='1068'> -1.5215000e+02 </wgt>
<wgt id='1069'> -1.6918000e+02 </wgt>
<wgt id='1070'> -1.5175000e+02 </wgt>
<wgt id='1071'> -1.5176000e+02 </wgt>
<wgt id='1072'> -1.5134000e+02 </wgt>
<wgt id='1073'> -1.5857000e+02 </wgt>
<wgt id='1074'> -1.5634000e+02 </wgt>
<wgt id='1075'> -1.4123000e+02 </wgt>
<wgt id='1076'> -1.5241000e+02 </wgt>
<wgt id='1077'> -1.4686000e+02 </wgt>
<wgt id='1078'> -1.4430000e+02 </wgt>
<wgt id='1079'> -1.4879000e+02 </wgt>
<wgt id='1080'> -1.5688000e+02 </wgt>
<wgt id='1081'> -1.5207000e+02 </wgt>
<wgt id='1082'> -1.5081000e+02 </wgt>
<wgt id='1083'> -1.5162000e+02 </wgt>
<wgt id='1084'> -1.4747000e+02 </wgt>
<wgt id='1085'> -1.5232000e+02 </wgt>
<wgt id='1086'> -1.5104000e+02 </wgt>
<wgt id='1087'> -1.4540000e+02 </wgt>
<wgt id='1088'> -1.4857000e+02 </wgt>
<wgt id='1089'> -1.5063000e+02 </wgt>
<wgt id='1090'> -1.4931000e+02 </wgt>
<wgt id='1091'> -1.5124000e+02 </wgt>
<wgt id='1092'> -1.4901000e+02 </wgt>
<wgt id='1093'> -1.4571000e+02 </wgt>
<wgt id='1094'> -1.5610000e+02 </wgt>
<wgt id='1095'> -1.5074000e+02 </wgt>
<wgt id='1096'> -1.5356000e+02 </wgt>
<wgt id='1097'> -1.4771000e+02 </wgt>
<wgt id='1098'> -1.5853000e+02 </wgt>
<wgt id='1099'> -1.5509000e+02 </wgt>
<wgt id='1100'> -1.6269000e+02 </wgt>
<wgt id='1101'> -1.5423000e+02 </wgt>
<wgt id='1102'> -1.4887000e+02 </wgt>
<wgt id='1103'> -1.4736000e+02 </wgt>
<wgt id='1104'> -1.5435000e+02 </wgt>
<wgt id='1105'> -1.5146096e+02 </wgt>
<wgt id='1106'> -4.7695735e+01 </wgt>
<wgt id='1107'> -1.2306767e+02 </wgt>
<wgt id='1108'> -1.7783295e+02 </wgt>
<wgt id='1109'> -1.2346005e+02 </wgt>
<wgt id='1110'> -2.6764614e+02 </wgt>
<wgt id='1111'> +1.2575796e+01 </wgt>
<wgt id='1112'> +1.7502152e+01 </wgt>
<wgt id='1113'> +2.5881981e+00 </wgt>
<wgt id='1114'> -7.9589574e+01 </wgt>
<wgt id='1115'> -7.2782895e+01 </wgt>
<wgt id='1116'> -7.9351984e+01 </wgt>
<wgt id='1117'> -8.1300787e+01 </wgt>
<wgt id='1118'> -8.1050688e+01 </wgt>
<wgt id='1119'> -8.0426511e+01 </wgt>
<wgt id='1120'> -7.6049071e+01 </wgt>
<wgt id='1121'> -7.6964489e+01 </wgt>
<wgt id='1122'> -8.2089586e+01 </wgt>
<wgt id='1123'> -8.1174721e+01 </wgt>
<wgt id='1124'> -8.0233689e+01 </wgt>
<wgt id='1125'> -8.0824856e+01 </wgt>
<wgt id='1126'> -7.9782098e+01 </wgt>
<wgt id='1127'> -8.0006626e+01 </wgt>
<wgt id='1128'> -7.9306455e+01 </wgt>
<wgt id='1129'> -8.1201405e+01 </wgt>
<wgt id='1130'> -7.9791622e+01 </wgt>
<wgt id='1131'> -8.0539842e+01 </wgt>
<wgt id='1132'> -7.9170077e+01 </wgt>
<wgt id='1133'> -8.0539399e+01 </wgt>
<wgt id='1134'> -8.4078421e+01 </wgt>
<wgt id='1135'> -7.8278001e+01 </wgt>
<wgt id='1136'> -8.0657504e+01 </wgt>
<wgt id='1137'> -7.7634931e+01 </wgt>
<wgt id='1138'> -8.1870084e+01 </wgt>
<wgt id='1139'> -8.0793892e+01 </wgt>
<wgt id='1140'> -7.9132564e+01 </wgt>
<wgt id='1141'> -8.2389891e+01 </wgt>
<wgt id='1142'> -7.8954237e+01 </wgt>
<wgt id='1143'> -8.0564375e+01 </wgt>
<wgt id='1144'> -8.0033419e+01 </wgt>
<wgt id='1145'> -7.7989127e+01 </wgt>
<wgt id='1146'> -7.9545621e+01 </wgt>
<wgt id='1147'> -7.8296580e+01 </wgt>
<wgt id='1148'> -8.2526032e+01 </wgt>
<wgt id='1149'> -8.2254041e+01 </wgt>
<wgt id='1150'> -7.9442575e+01 </wgt>
<wgt id='1151'> -7.9737458e+01 </wgt>
<wgt id='1152'> -8.1296476e+01 </wgt>
<wgt id='1153'> -7.6379217e+01 </wgt>
<wgt id='1154'> -7.8405436e+01 </wgt>
<wgt id='1155'> -8.0612115e+01 </wgt>
<wgt id='1156'> -7.5849020e+01 </wgt>
<wgt id='1157'> -7.9388698e+01 </wgt>
<wgt id='1158'> -7.6119398e+01 </wgt>
<wgt id='1159'> -7.8887783e+01 </wgt>
<wgt id='1160'> -7.9366449e+01 </wgt>
<wgt id='1161'> -7.7456034e+01 </wgt>
<wgt id='1162'> -7.9219108e+01 </wgt>
<wgt id='1163'> -7.9853197e+01 </wgt>
<wgt id='1164'> -7.9904456e+01 </wgt>
<wgt id='1165'> -7.9375095e+01 </wgt>
<wgt id='1166'> -7.8351607e+01 </wgt>
<wgt id='1167'> -8.2726335e+01 </wgt>
<wgt id='1168'> -7.5908767e+01 </wgt>
<wgt id='1169'> -7.9302369e+01 </wgt>
<wgt id='1170'> -7.9606784e+01 </wgt>
<wgt id='1171'> -7.9434262e+01 </wgt>
<wgt id='1172'> -8.0261539e+01 </wgt>
<wgt id='1173'> -8.3185082e+01 </wgt>
<wgt id='1174'> -7.8042768e+01 </wgt>
<wgt id='1175'> -7.8053764e+01 </wgt>
<wgt id='1176'> -7.8226135e+01 </wgt>
<wgt id='1177'> -8.0208289e+01 </wgt>
<wgt id='1178'> -8.1918957e+01 </wgt>
<wgt id='1179'> -7.7615532e+01 </wgt>
<wgt id='1180'> -7.8635274e+01 </wgt>
<wgt id='1181'> -7.3630983e+01 </wgt>
<wgt id='1182'> -7.9906799e+01 </wgt>
<wgt id='1183'> -7.9262003e+01 </wgt>
<wgt id='1184'> -7.7650659e+01 </wgt>
<wgt id='1185'> -8.1715169e+01 </wgt>
<wgt id='1186'> -7.5519632e+01 </wgt>
<wgt id='1187'> -8.2421020e+01 </wgt>
<wgt id='1188'> -8.3991303e+01 </wgt>
<wgt id='1189'> -8.1237202e+01 </wgt>
<wgt id='1190'> -7.9363052e+01 </wgt>
<wgt id='1191'> -7.8550350e+01 </wgt>
<wgt id='1192'> -8.0092107e+01 </wgt>
<wgt id='1193'> -8.2163717e+01 </wgt>
<wgt id='1194'> -7.8132434e+01 </wgt>
<wgt id='1195'> -7.8730626e+01 </wgt>
<wgt id='1196'> -7.9791622e+01 </wgt>
<wgt id='1197'> -7.8949420e+01 </wgt>
<wgt id='1198'> -8.2568119e+01 </wgt>
<wgt id='1199'> -8.0074432e+01 </wgt>
<wgt id='1200'> -7.5870622e+01 </wgt>
<wgt id='1201'> -8.3498749e+01 </wgt>
<wgt id='1202'> -7.8045624e+01 </wgt>
<wgt id='1203'> -8.3214172e+01 </wgt>
<wgt id='1204'> -7.8116499e+01 </wgt>
<wgt id='1205'> -8.0149666e+01 </wgt>
<wgt id='1206'> -8.3558668e+01 </wgt>
<wgt id='1207'> -8.1749832e+01 </wgt>
<wgt id='1208'> -7.6339526e+01 </wgt>
<wgt id='1209'> -7.7074865e+01 </wgt>
<wgt id='1210'> -8.0032778e+01 </wgt>
<wgt id='1211'> -7.6348249e+01 </wgt>
<wgt id='1212'> -8.0202756e+01 </wgt>
<wgt id='1213'> -8.0972122e+01 </wgt>
<wgt id='1214'> -8.0014995e+01 </wgt>
<wgt id='1215'> -7.6199231e+01 </wgt>
<wgt id='1216'> -7.9361822e+01 </wgt>
<wgt id='1217'> -7.9685442e+01 </wgt>
<wgt id='1218'> -7.9058333e+01 </wgt>
<wgt id='1219'> -7.9522979e+01 </wgt>
<wgt id='1220'> -7.9687335e+01 </wgt>
<wgt id='1221'> -7.9625275e+01 </wgt>
<wgt id='1222'> -7.9581687e+01 </wgt>
<wgt id='1223'> -7.9462786e+01 </wgt>
<wgt id='1224'> -7.9170607e+01 </wgt>
<wgt id='1225'> -7.9378704e+01 </wgt>
<wgt id='1226'> -7.9457556e+01 </wgt>
<wgt id='1227'> -7.9559687e+01 </wgt>
<wgt id='1228'> -7.9671351e+01 </wgt>
<wgt id='1229'> -7.8719834e+01 </wgt>
<wgt id='1230'> -7.9336589e+01 </wgt>
<wgt id='1231'> -8.0167167e+01 </wgt>
<wgt id='1232'> -7.8859408e+01 </wgt>
<wgt id='1233'> -7.9870610e+01 </wgt>
<wgt id='1234'> -7.9128076e+01 </wgt>
<wgt id='1235'> -7.9395679e+01 </wgt>
<wgt id='1236'> -7.9980803e+01 </wgt>
<wgt id='1237'> -7.8424767e+01 </wgt>
<wgt id='1238'> -7.9200460e+01 </wgt>
<wgt id='1239'> -7.9385427e+01 </wgt>
<wgt id='1240'> -7.9177795e+01 </wgt>
<wgt id='1241'> -7.9781898e+01 </wgt>
<wgt id='1242'> -7.9304272e+01 </wgt>
<wgt id='1243'> -7.9692430e+01 </wgt>
<wgt id='1244'> -7.9529095e+01 </wgt>
<wgt id='1245'> -7.9379906e+01 </wgt>
<wgt id='1246'> -7.9286278e+01 </wgt>
<wgt id='1247'> -7.9421593e+01 </wgt>
<wgt id='1248'> -7.9296819e+01 </wgt>
<wgt id='1249'> -7.9100983e+01 </wgt>
<wgt id='1250'> -7.9559991e+01 </wgt>
<wgt id='1251'> -7.9334633e+01 </wgt>
<wgt id='1252'> -7.9190245e+01 </wgt>
<wgt id='1253'> -7.9163901e+01 </wgt>
<wgt id='1254'> -7.9402079e+01 </wgt>
<wgt id='1255'> -7.9197899e+01 </wgt>
<wgt id='1256'> -7.9081340e+01 </wgt>
<wgt id='1257'> -7.9376041e+01 </wgt>
<wgt id='1258'> -7.9293598e+01 </wgt>
<wgt id='1259'> -7.9208433e+01 </wgt>
<wgt id='1260'> -7.9287494e+01 </wgt>
<wgt id='1261'> -7.9351142e+01 </wgt>
<wgt id='1262'> -7.9326450e+01 </wgt>
<wgt id='1263'> -7.9435225e+01 </wgt>
<wgt id='1264'> -7.9380233e+01 </wgt>
<wgt id='1265'> -7.9398646e+01 </wgt>
<wgt id='1266'> -7.9461723e+01 </wgt>
<wgt id='1267'> -7.9434075e+01 </wgt>
<wgt id='1268'> -7.9227475e+01 </wgt>
<wgt id='1269'> -7.9236068e+01 </wgt>
<wgt id='1270'> -7.9455504e+01 </wgt>
<wgt id='1271'> -7.9374404e+01 </wgt>
<wgt id='1272'> -7.9425348e+01 </wgt>
<wgt id='1273'> -7.9352404e+01 </wgt>
<wgt id='1274'> -7.9318204e+01 </wgt>
<wgt id='1275'> -7.9348683e+01 </wgt>
<wgt id='1276'> -7.9351441e+01 </wgt>
<wgt id='1277'> -7.9389445e+01 </wgt>
<wgt id='1278'> -7.9392346e+01 </wgt>
<wgt id='1279'> -7.9319970e+01 </wgt>
<wgt id='1280'> -7.9262768e+01 </wgt>
<wgt id='1281'> -7.9449528e+01 </wgt>
<wgt id='1282'> -7.9303994e+01 </wgt>
<wgt id='1283'> -7.9254621e+01 </wgt>
<wgt id='1284'> -7.9288396e+01 </wgt>
<wgt id='1285'> -7.9370979e+01 </wgt>
<wgt id='1286'> -7.9325010e+01 </wgt>
<wgt id='1287'> -7.9339622e+01 </wgt>
<wgt id='1288'> -7.9366172e+01 </wgt>
<wgt id='1289'> -7.9385382e+01 </wgt>
<wgt id='1290'> -7.9467704e+01 </wgt>
<wgt id='1291'> -7.9342281e+01 </wgt>
<wgt id='1292'> -7.9366723e+01 </wgt>
<wgt id='1293'> -7.9364850e+01 </wgt>
<wgt id='1294'> -7.9280034e+01 </wgt>
<wgt id='1295'> -7.9395194e+01 </wgt>
<wgt id='1296'> -7.9367878e+01 </wgt>
<wgt id='1297'> -7.9299346e+01 </wgt>
<wgt id='1298'> -7.9344910e+01 </wgt>
<wgt id='1299'> -7.9335710e+01 </wgt>
<wgt id='1300'> -7.9326680e+01 </wgt>
<wgt id='1301'> -7.9413345e+01 </wgt>
<wgt id='1302'> -7.9398411e+01 </wgt>
<wgt id='1303'> -7.9334186e+01 </wgt>
<wgt id='1304'> -7.9408014e+01 </wgt>
<wgt id='1305'> -7.9371824e+01 </wgt>
<wgt id='1306'> -7.9323215e+01 </wgt>
<wgt id='1307'> -7.9369834e+01 </wgt>
<wgt id='1308'> -7.9370820e+01 </wgt>
<wgt id='1309'> -7.9338401e+01 </wgt>
<wgt id='1310'> -7.9349904e+01 </wgt>
<wgt id='1311'> -7.9326117e+01 </wgt>
<wgt id='1312'> -7.9357440e+01 </wgt>
<wgt id='1313'> -7.9352257e+01 </wgt>
<wgt id='1314'> -7.9367007e+01 </wgt>
<wgt id='1315'> -7.9367292e+01 </wgt>
<wgt id='1316'> -7.9345221e+01 </wgt>
<wgt id='1317'> -7.5905539e+01 </wgt>
<wgt id='1318'> -8.3407880e+01 </wgt>
<wgt id='1319'> -7.4736170e+01 </wgt>
<wgt id='1320'> -7.7139232e+01 </wgt>
<wgt id='1321'> -7.7260644e+01 </wgt>
<wgt id='1322'> -7.7388742e+01 </wgt>
<wgt id='1323'> -7.9955756e+01 </wgt>
<wgt id='1324'> -7.5538193e+01 </wgt>
<wgt id='1325'> -7.7589410e+01 </wgt>
<wgt id='1326'> -7.6815097e+01 </wgt>
<wgt id='1327'> -7.8485827e+01 </wgt>
<wgt id='1328'> -7.6316856e+01 </wgt>
<wgt id='1329'> -7.5331536e+01 </wgt>
<wgt id='1330'> -7.8425728e+01 </wgt>
<wgt id='1331'> -7.8202735e+01 </wgt>
<wgt id='1332'> -7.6577437e+01 </wgt>
<wgt id='1333'> -7.4402818e+01 </wgt>
<wgt id='1334'> -7.8609064e+01 </wgt>
<wgt id='1335'> -7.5710748e+01 </wgt>
<wgt id='1336'> -7.8936466e+01 </wgt>
<wgt id='1337'> -7.6130014e+01 </wgt>
<wgt id='1338'> -7.8319927e+01 </wgt>
<wgt id='1339'> -7.8096855e+01 </wgt>
<wgt id='1340'> -7.6064811e+01 </wgt>
<wgt id='1341'> -7.7114018e+01 </wgt>
<wgt id='1342'> -7.7137499e+01 </wgt>
<wgt id='1343'> -7.6610530e+01 </wgt>
<wgt id='1344'> -7.7611913e+01 </wgt>
<wgt id='1345'> -7.6247215e+01 </wgt>
<wgt id='1346'> -7.7939163e+01 </wgt>
<wgt id='1347'> -7.6887077e+01 </wgt>
<wgt id='1348'> -7.7464679e+01 </wgt>
<wgt id='1349'> -7.6544884e+01 </wgt>
<wgt id='1350'> -7.7343338e+01 </wgt>
<wgt id='1351'> -7.7303491e+01 </wgt>
<wgt id='1352'> -7.6918383e+01 </wgt>
<wgt id='1353'> -7.6966002e+01 </wgt>
<wgt id='1354'> -7.7478503e+01 </wgt>
<wgt id='1355'> -7.8333176e+01 </wgt>
<wgt id='1356'> -7.5987173e+01 </wgt>
<wgt id='1357'> -7.7868205e+01 </wgt>
<wgt id='1358'> -7.5850564e+01 </wgt>
<wgt id='1359'> -7.7333981e+01 </wgt>
<wgt id='1360'> -7.6557397e+01 </wgt>
<wgt id='1361'> -7.7773837e+01 </wgt>
<wgt id='1362'> -7.6581955e+01 </wgt>
<wgt id='1363'> -7.7911031e+01 </wgt>
<wgt id='1364'> -7.6342993e+01 </wgt>
<wgt id='1365'> -7.5416199e+01 </wgt>
<wgt id='1366'> -7.7211787e+01 </wgt>
<wgt id='1367'> -7.5796416e+01 </wgt>
<wgt id='1368'> -7.8003420e+01 </wgt>
<wgt id='1369'> -7.7768424e+01 </wgt>
<wgt id='1370'> -7.4600986e+01 </wgt>
<wgt id='1371'> -7.6925594e+01 </wgt>
<wgt id='1372'> -7.6800422e+01 </wgt>
<wgt id='1373'> -7.5261361e+01 </wgt>
<wgt id='1374'> -7.8044646e+01 </wgt>
<wgt id='1375'> -7.6437952e+01 </wgt>
<wgt id='1376'> -7.6099901e+01 </wgt>
<wgt id='1377'> -7.3365697e+01 </wgt>
<wgt id='1378'> -8.0799118e+01 </wgt>
<wgt id='1379'> -7.6381304e+01 </wgt>
<wgt id='1380'> -7.2843898e+01 </wgt>
<wgt id='1381'> -7.9650255e+01 </wgt>
<wgt id='1382'> -7.0772934e+01 </wgt>
<wgt id='1383'> -7.8990377e+01 </wgt>
<wgt id='1384'> -7.6807895e+01 </wgt>
<wgt id='1385'> -1.1813056e+02 </wgt>
<wgt id='1386'> -1.1839436e+02 </wgt>
<wgt id='1387'> -1.1783209e+02 </wgt>
<wgt id='1388'> -1.1744711e+02 </wgt>
<wgt id='1389'> -1.1930306e+02 </wgt>
<wgt id='1390'> -1.1792878e+02 </wgt>
<wgt id='1391'> -1.1836948e+02 </wgt>
<wgt id='1392'> -1.1815967e+02 </wgt>
<wgt id='1393'> -1.1810979e+02 </wgt>
<wgt id='1394'> -1.1766176e+02 </wgt>
<wgt id='1395'> -1.1871019e+02 </wgt>
<wgt id='1396'> -1.1702678e+02 </wgt>
<wgt id='1397'> -1.1870278e+02 </wgt>
<wgt id='1398'> -1.1823989e+02 </wgt>
<wgt id='1399'> -1.1803524e+02 </wgt>
<wgt id='1400'> -1.1795012e+02 </wgt>
<wgt id='1401'> -1.1825613e+02 </wgt>
<wgt id='1402'> -1.1771433e+02 </wgt>
<wgt id='1403'> -1.1832236e+02 </wgt>
<wgt id='1404'> -1.1948721e+02 </wgt>
<wgt id='1405'> -1.1747317e+02 </wgt>
<wgt id='1406'> -1.1874336e+02 </wgt>
<wgt id='1407'> -1.1702892e+02 </wgt>
<wgt id='1408'> -1.1886229e+02 </wgt>
<wgt id='1409'> -1.1666841e+02 </wgt>
<wgt id='1410'> -1.1824000e+02 </wgt>
<wgt id='1411'> -1.1778932e+02 </wgt>
<wgt id='1412'> -1.1872380e+02 </wgt>
<wgt id='1413'> -1.1742845e+02 </wgt>
<wgt id='1414'> -1.1850443e+02 </wgt>
<wgt id='1415'> -1.1790281e+02 </wgt>
<wgt id='1416'> -1.1829324e+02 </wgt>
<wgt id='1417'> -1.1803223e+02 </wgt>
<wgt id='1418'> -1.1844520e+02 </wgt>
<wgt id='1419'> -1.1746453e+02 </wgt>
<wgt id='1420'> -1.1749090e+02 </wgt>
<wgt id='1421'> -1.1814261e+02 </wgt>
<wgt id='1422'> -1.1794424e+02 </wgt>
<wgt id='1423'> -1.1830697e+02 </wgt>
<wgt id='1424'> -1.1828044e+02 </wgt>
<wgt id='1425'> -1.1763410e+02 </wgt>
<wgt id='1426'> -1.1760753e+02 </wgt>
<wgt id='1427'> -1.1780072e+02 </wgt>
<wgt id='1428'> -1.1787974e+02 </wgt>
<wgt id='1429'> -1.1864271e+02 </wgt>
<wgt id='1430'> -1.1783982e+02 </wgt>
<wgt id='1431'> -1.1736279e+02 </wgt>
<wgt id='1432'> -1.1788918e+02 </wgt>
<wgt id='1433'> -1.1717761e+02 </wgt>
<wgt id='1434'> -1.1785875e+02 </wgt>
<wgt id='1435'> -1.1831041e+02 </wgt>
<wgt id='1436'> -7.2583610e+01 </wgt>
<wgt id='1437'> -7.2557886e+01 </wgt>
<wgt id='1438'> -7.2598050e+01 </wgt>
<wgt id='1439'> -7.2579127e+01 </wgt>
<wgt id='1440'> -7.2813264e+01 </wgt>
<wgt id='1441'> -7.2644691e+01 </wgt>
<wgt id='1442'> -7.2146937e+01 </wgt>
<wgt id='1443'> -7.2561232e+01 </wgt>
<wgt id='1444'> -7.2008851e+01 </wgt>
<wgt id='1445'> -7.1895243e+01 </wgt>
<wgt id='1446'> -7.2808491e+01 </wgt>
<wgt id='1447'> -7.2557851e+01 </wgt>
<wgt id='1448'> -7.2273522e+01 </wgt>
<wgt id='1449'> -7.2435801e+01 </wgt>
<wgt id='1450'> -7.2657919e+01 </wgt>
<wgt id='1451'> -7.2648067e+01 </wgt>
<wgt id='1452'> -7.2244073e+01 </wgt>
<wgt id='1453'> -7.2774901e+01 </wgt>
<wgt id='1454'> -7.2899777e+01 </wgt>
<wgt id='1455'> -7.2440000e+01 </wgt>
<wgt id='1456'> -7.2656385e+01 </wgt>
<wgt id='1457'> -7.2844438e+01 </wgt>
<wgt id='1458'> -7.2858051e+01 </wgt>
<wgt id='1459'> -7.2941559e+01 </wgt>
<wgt id='1460'> -7.2735234e+01 </wgt>
<wgt id='1461'> -7.2907440e+01 </wgt>
<wgt id='1462'> -7.2434572e+01 </wgt>
<wgt id='1463'> -7.2565682e+01 </wgt>
<wgt id='1464'> -7.2347473e+01 </wgt>
<wgt id='1465'> -7.7775435e+01 </wgt>
<wgt id='1466'> -7.7204346e+01 </wgt>
<wgt id='1467'> -7.7176021e+01 </wgt>
<wgt id='1468'> -7.8154592e+01 </wgt>
<wgt id='1469'> -7.7390836e+01 </wgt>
<wgt id='1470'> -7.7173056e+01 </wgt>
<wgt id='1471'> -7.6582119e+01 </wgt>
<wgt id='1472'> -7.7191814e+01 </wgt>
<wgt id='1473'> -7.7527048e+01 </wgt>
<wgt id='1474'> -7.8708849e+01 </wgt>
<wgt id='1475'> -7.6450188e+01 </wgt>
<wgt id='1476'> -7.8036975e+01 </wgt>
<wgt id='1477'> -7.7771212e+01 </wgt>
<wgt id='1478'> -7.6107682e+01 </wgt>
<wgt id='1479'> -7.7156917e+01 </wgt>
<wgt id='1480'> -7.7391771e+01 </wgt>
<wgt id='1481'> -7.6872042e+01 </wgt>
<wgt id='1482'> -7.8192320e+01 </wgt>
<wgt id='1483'> -7.6617591e+01 </wgt>
<wgt id='1484'> -7.6667023e+01 </wgt>
<wgt id='1485'> -7.7228924e+01 </wgt>
<wgt id='1486'> -7.7501864e+01 </wgt>
<wgt id='1487'> -7.6991723e+01 </wgt>
<wgt id='1488'> -7.7293824e+01 </wgt>
<wgt id='1489'> -7.6878303e+01 </wgt>
<wgt id='1490'> -7.7275044e+01 </wgt>
<wgt id='1491'> -7.7397177e+01 </wgt>
<wgt id='1492'> -7.6979060e+01 </wgt>
<wgt id='1493'> -7.7311576e+01 </wgt>
<wgt id='1494'> -7.7038822e+01 </wgt>
<wgt id='1495'> -7.7076908e+01 </wgt>
<wgt id='1496'> -7.7166309e+01 </wgt>
<wgt id='1497'> -7.7142508e+01 </wgt>
<wgt id='1498'> -7.7276925e+01 </wgt>
<wgt id='1499'> -7.7159093e+01 </wgt>
<wgt id='1500'> -7.7300048e+01 </wgt>
<wgt id='1501'> -7.7460240e+01 </wgt>
<wgt id='1502'> -7.7049094e+01 </wgt>
<wgt id='1503'> -7.7240584e+01 </wgt>
<wgt id='1504'> -7.7107361e+01 </wgt>
<wgt id='1505'> -7.7304154e+01 </wgt>
<wgt id='1506'> -7.7313896e+01 </wgt>
<wgt id='1507'> -7.7119336e+01 </wgt>
<wgt id='1508'> -7.7277715e+01 </wgt>
<wgt id='1509'> -7.7120446e+01 </wgt>
<wgt id='1510'> -7.7249787e+01 </wgt>
<wgt id='1511'> -7.7323640e+01 </wgt>
<wgt id='1512'> -7.7172353e+01 </wgt>
<wgt id='1513'> -7.7092880e+01 </wgt>
<wgt id='1514'> -7.7165133e+01 </wgt>
<wgt id='1515'> -7.7180585e+01 </wgt>
<wgt id='1516'> -7.7182336e+01 </wgt>
<wgt id='1517'> -7.7205707e+01 </wgt>
<wgt id='1518'> -7.7240614e+01 </wgt>
<wgt id='1519'> -7.7079395e+01 </wgt>
<wgt id='1520'> -7.7256473e+01 </wgt>
<wgt id='1521'> -7.7315652e+01 </wgt>
<wgt id='1522'> -7.7139539e+01 </wgt>
<wgt id='1523'> -7.7170092e+01 </wgt>
<wgt id='1524'> -7.7299787e+01 </wgt>
<wgt id='1525'> -7.7236014e+01 </wgt>
<wgt id='1526'> -7.7071463e+01 </wgt>
<wgt id='1527'> -7.7150698e+01 </wgt>
<wgt id='1528'> -7.7129980e+01 </wgt>
<wgt id='1529'> -7.7191073e+01 </wgt>
<wgt id='1530'> -7.7155881e+01 </wgt>
<wgt id='1531'> -7.7159192e+01 </wgt>
<wgt id='1532'> -7.7226879e+01 </wgt>
<wgt id='1533'> -7.7261749e+01 </wgt>
<wgt id='1534'> -7.7195499e+01 </wgt>
<wgt id='1535'> -7.7282641e+01 </wgt>
<wgt id='1536'> -7.7245043e+01 </wgt>
<wgt id='1537'> -7.7149928e+01 </wgt>
<wgt id='1538'> -7.7213181e+01 </wgt>
<wgt id='1539'> -7.7207049e+01 </wgt>
<wgt id='1540'> -7.7227902e+01 </wgt>
<wgt id='1541'> -7.7197723e+01 </wgt>
<wgt id='1542'> -7.7199878e+01 </wgt>
<wgt id='1543'> -7.7195512e+01 </wgt>
<wgt id='1544'> -7.7202096e+01 </wgt>
<wgt id='1545'> -7.7229698e+01 </wgt>
<wgt id='1546'> -7.7214005e+01 </wgt>
<wgt id='1547'> -7.7211798e+01 </wgt>
<wgt id='1548'> -7.7151177e+01 </wgt>
<wgt id='1549'> -7.7243858e+01 </wgt>
<wgt id='1550'> -7.7247315e+01 </wgt>
<wgt id='1551'> -7.7205098e+01 </wgt>
<wgt id='1552'> -7.7213648e+01 </wgt>
<wgt id='1553'> -7.7188378e+01 </wgt>
<wgt id='1554'> -7.7192510e+01 </wgt>
<wgt id='1555'> -7.7229334e+01 </wgt>
<wgt id='1556'> -7.7202151e+01 </wgt>
<wgt id='1557'> -7.7185564e+01 </wgt>
<wgt id='1558'> -7.7230273e+01 </wgt>
<wgt id='1559'> -7.7174569e+01 </wgt>
<wgt id='1560'> -7.7221475e+01 </wgt>
<wgt id='1561'> -7.7211832e+01 </wgt>
<wgt id='1562'> -7.7174761e+01 </wgt>
<wgt id='1563'> -7.7211740e+01 </wgt>
<wgt id='1564'> -7.7207479e+01 </wgt>
<wgt id='1565'> -7.7222496e+01 </wgt>
<wgt id='1566'> -7.7209546e+01 </wgt>
<wgt id='1567'> -7.4476019e+01 </wgt>
<wgt id='1568'> -7.9950072e+01 </wgt>
<wgt id='1569'> -7.6412830e+01 </wgt>
<wgt id='1570'> -7.6764539e+01 </wgt>
<wgt id='1571'> -7.6753181e+01 </wgt>
<wgt id='1572'> -7.5742835e+01 </wgt>
<wgt id='1573'> -7.6004960e+01 </wgt>
<wgt id='1574'> -7.6560431e+01 </wgt>
<wgt id='1575'> -7.5885229e+01 </wgt>
<wgt id='1576'> -7.5962965e+01 </wgt>
<wgt id='1577'> -7.6517243e+01 </wgt>
<wgt id='1578'> -7.6387672e+01 </wgt>
<wgt id='1579'> -7.6596158e+01 </wgt>
<wgt id='1580'> -7.6521336e+01 </wgt>
<wgt id='1581'> -7.5423290e+01 </wgt>
<wgt id='1582'> -7.5153875e+01 </wgt>
<wgt id='1583'> -7.5319118e+01 </wgt>
<wgt id='1584'> -7.6225068e+01 </wgt>
<wgt id='1585'> -7.6620243e+01 </wgt>
<wgt id='1586'> -7.7122310e+01 </wgt>
<wgt id='1587'> -7.5774655e+01 </wgt>
<wgt id='1588'> -7.6711913e+01 </wgt>
<wgt id='1589'> -7.6857123e+01 </wgt>
<wgt id='1590'> -7.6509457e+01 </wgt>
<wgt id='1591'> -7.6837744e+01 </wgt>
<wgt id='1592'> -7.6724487e+01 </wgt>
<wgt id='1593'> -7.6100483e+01 </wgt>
<wgt id='1594'> -7.6504769e+01 </wgt>
<wgt id='1595'> -7.6368737e+01 </wgt>
<wgt id='1596'> -7.6402940e+01 </wgt>
<wgt id='1597'> -7.6569167e+01 </wgt>
<wgt id='1598'> -7.6373487e+01 </wgt>
<wgt id='1599'> -7.6466340e+01 </wgt>
<wgt id='1600'> -7.6352932e+01 </wgt>
<wgt id='1601'> -7.6639087e+01 </wgt>
<wgt id='1602'> -7.6359747e+01 </wgt>
<wgt id='1603'> -7.6462850e+01 </wgt>
<wgt id='1604'> -7.6698861e+01 </wgt>
<wgt id='1605'> -7.6363295e+01 </wgt>
<wgt id='1606'> -7.6350628e+01 </wgt>
<wgt id='1607'> -7.6488840e+01 </wgt>
<wgt id='1608'> -7.6478492e+01 </wgt>
<wgt id='1609'> -7.6135449e+01 </wgt>
<wgt id='1610'> -7.6378372e+01 </wgt>
<wgt id='1611'> -7.6344466e+01 </wgt>
<wgt id='1612'> -7.6275933e+01 </wgt>
<wgt id='1613'> -7.6421614e+01 </wgt>
<wgt id='1614'> -7.6410459e+01 </wgt>
<wgt id='1615'> -7.6386381e+01 </wgt>
<wgt id='1616'> -7.6307557e+01 </wgt>
<wgt id='1617'> -7.6516995e+01 </wgt>
<wgt id='1618'> -7.6349145e+01 </wgt>
<wgt id='1619'> -7.6333526e+01 </wgt>
<wgt id='1620'> -7.6351581e+01 </wgt>
<wgt id='1621'> -7.6524793e+01 </wgt>
<wgt id='1622'> -7.6468102e+01 </wgt>
<wgt id='1623'> -7.6308777e+01 </wgt>
<wgt id='1624'> -7.6406397e+01 </wgt>
<wgt id='1625'> -7.6463677e+01 </wgt>
<wgt id='1626'> -7.6485006e+01 </wgt>
<wgt id='1627'> -7.6342889e+01 </wgt>
<wgt id='1628'> -7.6331533e+01 </wgt>
<wgt id='1629'> -7.6436436e+01 </wgt>
<wgt id='1630'> -7.6422829e+01 </wgt>
<wgt id='1631'> -7.6307058e+01 </wgt>
<wgt id='1632'> -7.6414134e+01 </wgt>
<wgt id='1633'> -7.6376590e+01 </wgt>
<wgt id='1634'> -7.6366195e+01 </wgt>
<wgt id='1635'> -7.6458782e+01 </wgt>
<wgt id='1636'> -7.6438544e+01 </wgt>
<wgt id='1637'> -7.6471786e+01 </wgt>
<wgt id='1638'> -7.6454616e+01 </wgt>
<wgt id='1639'> -7.6396634e+01 </wgt>
<wgt id='1640'> -7.6456565e+01 </wgt>
<wgt id='1641'> -7.6447633e+01 </wgt>
<wgt id='1642'> -7.6414823e+01 </wgt>
<wgt id='1643'> -7.6414759e+01 </wgt>
<wgt id='1644'> -7.6384107e+01 </wgt>
<wgt id='1645'> -7.6399907e+01 </wgt>
<wgt id='1646'> -7.6426568e+01 </wgt>
<wgt id='1647'> -7.6445023e+01 </wgt>
<wgt id='1648'> -7.6408184e+01 </wgt>
<wgt id='1649'> -7.6458991e+01 </wgt>
<wgt id='1650'> -7.6386165e+01 </wgt>
<wgt id='1651'> -7.6417524e+01 </wgt>
<wgt id='1652'> -7.6364204e+01 </wgt>
<wgt id='1653'> -7.6378307e+01 </wgt>
<wgt id='1654'> -7.6409357e+01 </wgt>
<wgt id='1655'> -7.6429473e+01 </wgt>
<wgt id='1656'> -7.6373072e+01 </wgt>
<wgt id='1657'> -7.6385485e+01 </wgt>
<wgt id='1658'> -7.6397742e+01 </wgt>
<wgt id='1659'> -7.6442923e+01 </wgt>
<wgt id='1660'> -7.6417609e+01 </wgt>
<wgt id='1661'> -7.6425761e+01 </wgt>
<wgt id='1662'> -7.6400378e+01 </wgt>
<wgt id='1663'> -7.6419048e+01 </wgt>
<wgt id='1664'> -7.6422885e+01 </wgt>
<wgt id='1665'> -7.6412608e+01 </wgt>
<wgt id='1666'> -7.6421143e+01 </wgt>
<wgt id='1667'> -7.6415340e+01 </wgt>
<wgt id='1668'> -7.6411613e+01 </wgt>
<wgt id='1669'> -7.6416538e+01 </wgt>
<wgt id='1670'> -7.3874921e+01 </wgt>
<wgt id='1671'> -7.8702645e+01 </wgt>
<wgt id='1672'> -7.7350207e+01 </wgt>
<wgt id='1673'> -7.7526849e+01 </wgt>
<wgt id='1674'> -7.8604364e+01 </wgt>
<wgt id='1675'> -7.7383790e+01 </wgt>
<wgt id='1676'> -7.7643178e+01 </wgt>
<wgt id='1677'> -7.9734398e+01 </wgt>
<wgt id='1678'> -7.7412254e+01 </wgt>
<wgt id='1679'> -7.7267827e+01 </wgt>
<wgt id='1680'> -7.7527567e+01 </wgt>
<wgt id='1681'> -7.7171933e+01 </wgt>
<wgt id='1682'> -7.7314225e+01 </wgt>
<wgt id='1683'> -7.7460263e+01 </wgt>
<wgt id='1684'> -7.7309347e+01 </wgt>
<wgt id='1685'> -7.7344332e+01 </wgt>
<wgt id='1686'> -7.7629281e+01 </wgt>
<wgt id='1687'> -7.7490228e+01 </wgt>
<wgt id='1688'> -7.7458280e+01 </wgt>
<wgt id='1689'> -7.7017940e+01 </wgt>
<wgt id='1690'> -7.7339128e+01 </wgt>
<wgt id='1691'> -7.7260354e+01 </wgt>
<wgt id='1692'> -7.7205429e+01 </wgt>
<wgt id='1693'> -7.7381047e+01 </wgt>
<wgt id='1694'> -7.7237592e+01 </wgt>
<wgt id='1695'> -7.7303037e+01 </wgt>
<wgt id='1696'> -7.7392923e+01 </wgt>
<wgt id='1697'> -7.7412671e+01 </wgt>
<wgt id='1698'> -7.7115592e+01 </wgt>
<wgt id='1699'> -7.7316027e+01 </wgt>
<wgt id='1700'> -7.7325021e+01 </wgt>
<wgt id='1701'> -7.7376147e+01 </wgt>
<wgt id='1702'> -7.7273913e+01 </wgt>
<wgt id='1703'> -7.4476019e+01 </wgt>
<wgt id='1704'> -7.9950072e+01 </wgt>
<wgt id='1705'> -7.6426112e+01 </wgt>
<wgt id='1706'> -7.7012050e+01 </wgt>
<wgt id='1707'> -7.6326612e+01 </wgt>
<wgt id='1708'> -7.6392653e+01 </wgt>
<wgt id='1709'> -7.6961869e+01 </wgt>
<wgt id='1710'> -7.5260206e+01 </wgt>
<wgt id='1711'> -7.6352678e+01 </wgt>
<wgt id='1712'> -7.6340273e+01 </wgt>
<wgt id='1713'> -7.6378724e+01 </wgt>
<wgt id='1714'> -7.6581684e+01 </wgt>
<wgt id='1715'> -7.6259747e+01 </wgt>
<wgt id='1716'> -7.5412922e+01 </wgt>
<wgt id='1717'> -7.6315499e+01 </wgt>
<wgt id='1718'> -7.6661699e+01 </wgt>
<wgt id='1719'> -7.6421593e+01 </wgt>
<wgt id='1720'> -7.6361355e+01 </wgt>
<wgt id='1721'> -7.6368098e+01 </wgt>
<wgt id='1722'> -7.7121666e+01 </wgt>
<wgt id='1723'> -7.6435397e+01 </wgt>
<wgt id='1724'> -7.6442193e+01 </wgt>
<wgt id='1725'> -7.6633511e+01 </wgt>
<wgt id='1726'> -7.6706978e+01 </wgt>
<wgt id='1727'> -7.7785313e+01 </wgt>
<wgt id='1728'> -7.6354273e+01 </wgt>
<wgt id='1729'> -7.6279184e+01 </wgt>
<wgt id='1730'> -7.6327566e+01 </wgt>
<wgt id='1731'> -7.6523463e+01 </wgt>
<wgt id='1732'> -7.6160312e+01 </wgt>
<wgt id='1733'> -7.6254304e+01 </wgt>
<wgt id='1734'> -7.6616945e+01 </wgt>
<wgt id='1735'> -7.6060987e+01 </wgt>
<wgt id='1736'> -7.3874921e+01 </wgt>
<wgt id='1737'> -7.8702645e+01 </wgt>
<wgt id='1738'> -8.3596153e+01 </wgt>
<wgt id='1739'> -8.3501566e+01 </wgt>
<wgt id='1740'> -8.3690463e+01 </wgt>
<wgt id='1741'> -8.3759793e+01 </wgt>
<wgt id='1742'> -8.3432805e+01 </wgt>
<wgt id='1743'> -8.3764705e+01 </wgt>
<wgt id='1744'> -8.3428004e+01 </wgt>
<wgt id='1745'> -8.3840992e+01 </wgt>
<wgt id='1746'> -8.3357334e+01 </wgt>
<wgt id='1747'> -8.3758355e+01 </wgt>
<wgt id='1748'> -8.3436387e+01 </wgt>
<wgt id='1749'> -8.3482262e+01 </wgt>
<wgt id='1750'> -8.3736612e+01 </wgt>
<wgt id='1751'> -8.3253931e+01 </wgt>
<wgt id='1752'> -8.3942972e+01 </wgt>
<wgt id='1753'> -8.3538174e+01 </wgt>
<wgt id='1754'> -8.3490843e+01 </wgt>
<wgt id='1755'> -8.3813305e+01 </wgt>
<wgt id='1756'> -8.3382445e+01 </wgt>
<wgt id='1757'> -8.3228884e+01 </wgt>
<wgt id='1758'> -8.3936242e+01 </wgt>
<wgt id='1759'> -8.3873997e+01 </wgt>
<wgt id='1760'> -8.3226875e+01 </wgt>
<wgt id='1761'> -8.3324489e+01 </wgt>
<wgt id='1762'> -8.3442310e+01 </wgt>
<wgt id='1763'> -8.3927593e+01 </wgt>
<wgt id='1764'> -8.3381974e+01 </wgt>
<wgt id='1765'> -8.3539982e+01 </wgt>
<wgt id='1766'> -8.3725881e+01 </wgt>
<wgt id='1767'> -8.3596153e+01 </wgt>
<wgt id='1768'> -8.1517246e+01 </wgt>
<wgt id='1769'> -8.6067189e+01 </wgt>
<wgt id='1770'> -8.0724279e+01 </wgt>
<wgt id='1771'> -8.4443486e+01 </wgt>
<wgt id='1772'> -8.3919382e+01 </wgt>
<wgt id='1773'> -8.2882642e+01 </wgt>
<wgt id='1774'> -8.3259704e+01 </wgt>
<wgt id='1775'> -8.3905507e+01 </wgt>
<wgt id='1776'> -8.3322247e+01 </wgt>
<wgt id='1777'> -8.3875809e+01 </wgt>
<wgt id='1778'> -8.3679147e+01 </wgt>
<wgt id='1779'> -8.3719468e+01 </wgt>
<wgt id='1780'> -8.2234428e+01 </wgt>
<wgt id='1781'> -7.8101144e+01 </wgt>
<wgt id='1782'> -7.8059437e+01 </wgt>
<wgt id='1783'> -7.8133317e+01 </wgt>
<wgt id='1784'> -7.8145293e+01 </wgt>
<wgt id='1785'> -7.8047812e+01 </wgt>
<wgt id='1786'> -7.8282880e+01 </wgt>
<wgt id='1787'> -7.7910385e+01 </wgt>
<wgt id='1788'> -7.8402945e+01 </wgt>
<wgt id='1789'> -7.7797373e+01 </wgt>
<wgt id='1790'> -7.8130949e+01 </wgt>
<wgt id='1791'> -7.8067201e+01 </wgt>
<wgt id='1792'> -7.8299251e+01 </wgt>
<wgt id='1793'> -7.7894351e+01 </wgt>
<wgt id='1794'> -7.7860649e+01 </wgt>
<wgt id='1795'> -7.8329394e+01 </wgt>
<wgt id='1796'> -7.7916884e+01 </wgt>
<wgt id='1797'> -7.8153008e+01 </wgt>
<wgt id='1798'> -7.8110956e+01 </wgt>
<wgt id='1799'> -7.8066611e+01 </wgt>
<wgt id='1800'> -7.7893628e+01 </wgt>
<wgt id='1801'> -7.8295206e+01 </wgt>
<wgt id='1802'> -7.7452756e+01 </wgt>
<wgt id='1803'> -7.8635000e+01 </wgt>
<wgt id='1804'> -7.8312870e+01 </wgt>
<wgt id='1805'> -7.7873131e+01 </wgt>
<wgt id='1806'> -7.8043203e+01 </wgt>
<wgt id='1807'> -7.7962764e+01 </wgt>
<wgt id='1808'> -7.8245343e+01 </wgt>
<wgt id='1809'> -7.8038173e+01 </wgt>
<wgt id='1810'> -7.7843343e+01 </wgt>
<wgt id='1811'> -7.5675158e+01 </wgt>
<wgt id='1812'> -8.0340235e+01 </wgt>
<wgt id='1813'> -7.4835646e+01 </wgt>
<wgt id='1814'> -7.8754237e+01 </wgt>
<wgt id='1815'> -7.8202080e+01 </wgt>
<wgt id='1816'> -7.7485691e+01 </wgt>
<wgt id='1817'> -7.7557939e+01 </wgt>
<wgt id='1818'> -7.8231260e+01 </wgt>
<wgt id='1819'> -7.7673518e+01 </wgt>
<wgt id='1820'> -7.8458517e+01 </wgt>
<wgt id='1821'> -7.7729974e+01 </wgt>
<wgt id='1822'> -7.8313328e+01 </wgt>
<wgt id='1823'> -7.7075479e+01 </wgt>
<wgt id='1824'> -7.6760079e+01 </wgt>
<wgt id='1825'> -7.6746101e+01 </wgt>
<wgt id='1826'> -7.6732132e+01 </wgt>
<wgt id='1827'> -7.6718043e+01 </wgt>
<wgt id='1828'> -7.6704079e+01 </wgt>
<wgt id='1829'> -7.6690158e+01 </wgt>
<wgt id='1830'> -7.6676066e+01 </wgt>
<wgt id='1831'> -7.6661828e+01 </wgt>
<wgt id='1832'> -7.6647813e+01 </wgt>
<wgt id='1833'> -7.6633750e+01 </wgt>
<wgt id='1834'> -7.6619892e+01 </wgt>
<wgt id='1835'> -7.6605799e+01 </wgt>
<wgt id='1836'> -7.6591633e+01 </wgt>
<wgt id='1837'> -7.6577712e+01 </wgt>
<wgt id='1838'> -7.6563716e+01 </wgt>
<wgt id='1839'> -7.6549794e+01 </wgt>
<wgt id='1840'> -7.6535881e+01 </wgt>
<wgt id='1841'> -7.6521952e+01 </wgt>
<wgt id='1842'> -7.6507973e+01 </wgt>
<wgt id='1843'> -7.6493894e+01 </wgt>
<wgt id='1844'> -7.6480027e+01 </wgt>
<wgt id='1845'> -7.6465975e+01 </wgt>
<wgt id='1846'> -7.6452155e+01 </wgt>
<wgt id='1847'> -7.6438230e+01 </wgt>
<wgt id='1848'> -7.6424251e+01 </wgt>
<wgt id='1849'> -7.6410212e+01 </wgt>
<wgt id='1850'> -7.6396275e+01 </wgt>
<wgt id='1851'> -7.6382289e+01 </wgt>
<wgt id='1852'> -7.6368258e+01 </wgt>
<wgt id='1853'> -7.6354371e+01 </wgt>
<wgt id='1854'> -7.6340610e+01 </wgt>
<wgt id='1855'> -7.5550112e+01 </wgt>
<wgt id='1856'> -7.5900478e+01 </wgt>
<wgt id='1857'> -7.5887704e+01 </wgt>
<wgt id='1858'> -7.4887944e+01 </wgt>
<wgt id='1859'> -7.5147492e+01 </wgt>
<wgt id='1860'> -7.5694773e+01 </wgt>
<wgt id='1861'> -7.5026864e+01 </wgt>
<wgt id='1862'> -7.5103247e+01 </wgt>
<wgt id='1863'> -7.5652605e+01 </wgt>
<wgt id='1864'> -7.5524090e+01 </wgt>
<wgt id='1865'> -7.5731895e+01 </wgt>
<wgt id='1866'> -7.5654552e+01 </wgt>
<wgt id='1867'> -7.4572034e+01 </wgt>
<wgt id='1868'> -7.4303526e+01 </wgt>
<wgt id='1869'> -7.4467861e+01 </wgt>
<wgt id='1870'> -7.5365456e+01 </wgt>
<wgt id='1871'> -7.5753941e+01 </wgt>
<wgt id='1872'> -7.6254979e+01 </wgt>
<wgt id='1873'> -7.4918590e+01 </wgt>
<wgt id='1874'> -7.5849418e+01 </wgt>
<wgt id='1875'> -7.5988627e+01 </wgt>
<wgt id='1876'> -7.5644448e+01 </wgt>
<wgt id='1877'> -7.5974521e+01 </wgt>
<wgt id='1878'> -7.5854625e+01 </wgt>
<wgt id='1879'> -7.5237163e+01 </wgt>
<wgt id='1880'> -7.5646118e+01 </wgt>
<wgt id='1881'> -7.5508266e+01 </wgt>
<wgt id='1882'> -7.5538973e+01 </wgt>
<wgt id='1883'> -7.5705774e+01 </wgt>
<wgt id='1884'> -7.5511688e+01 </wgt>
<wgt id='1885'> -7.5605289e+01 </wgt>
<wgt id='1886'> -7.5487628e+01 </wgt>
<wgt id='1887'> -7.5774253e+01 </wgt>
<wgt id='1888'> -7.5496802e+01 </wgt>
<wgt id='1889'> -7.5600874e+01 </wgt>
<wgt id='1890'> -7.5835943e+01 </wgt>
<wgt id='1891'> -7.5500650e+01 </wgt>
<wgt id='1892'> -7.5487616e+01 </wgt>
<wgt id='1893'> -7.5626930e+01 </wgt>
<wgt id='1894'> -7.5616663e+01 </wgt>
<wgt id='1895'> -7.5273737e+01 </wgt>
<wgt id='1896'> -7.5516576e+01 </wgt>
<wgt id='1897'> -7.5483509e+01 </wgt>
<wgt id='1898'> -7.5412000e+01 </wgt>
<wgt id='1899'> -7.5558686e+01 </wgt>
<wgt id='1900'> -7.5548192e+01 </wgt>
<wgt id='1901'> -7.5523790e+01 </wgt>
<wgt id='1902'> -7.5446206e+01 </wgt>
<wgt id='1903'> -7.5654418e+01 </wgt>
<wgt id='1904'> -7.5488798e+01 </wgt>
<wgt id='1905'> -7.5471340e+01 </wgt>
<wgt id='1906'> -7.5488381e+01 </wgt>
<wgt id='1907'> -7.5663541e+01 </wgt>
<wgt id='1908'> -7.5605109e+01 </wgt>
<wgt id='1909'> -7.5444507e+01 </wgt>
<wgt id='1910'> -7.5541872e+01 </wgt>
<wgt id='1911'> -7.5601674e+01 </wgt>
<wgt id='1912'> -7.5623323e+01 </wgt>
<wgt id='1913'> -7.5479114e+01 </wgt>
<wgt id='1914'> -7.5468141e+01 </wgt>
<wgt id='1915'> -7.5574759e+01 </wgt>
<wgt id='1916'> -7.5560140e+01 </wgt>
<wgt id='1917'> -7.5441990e+01 </wgt>
<wgt id='1918'> -7.5550753e+01 </wgt>
<wgt id='1919'> -7.5513588e+01 </wgt>
<wgt id='1920'> -7.5502947e+01 </wgt>
<wgt id='1921'> -7.5596766e+01 </wgt>
<wgt id='1922'> -7.5575451e+01 </wgt>
<wgt id='1923'> -7.5609757e+01 </wgt>
<wgt id='1924'> -7.5593547e+01 </wgt>
<wgt id='1925'> -7.5534113e+01 </wgt>
<wgt id='1926'> -7.5592642e+01 </wgt>
<wgt id='1927'> -7.5584638e+01 </wgt>
<wgt id='1928'> -7.5552755e+01 </wgt>
<wgt id='1929'> -7.5552479e+01 </wgt>
<wgt id='1930'> -7.5521013e+01 </wgt>
<wgt id='1931'> -7.5536640e+01 </wgt>
<wgt id='1932'> -7.5563237e+01 </wgt>
<wgt id='1933'> -7.5581939e+01 </wgt>
<wgt id='1934'> -7.5546435e+01 </wgt>
<wgt id='1935'> -7.5596702e+01 </wgt>
<wgt id='1936'> -7.5524341e+01 </wgt>
<wgt id='1937'> -7.5553499e+01 </wgt>
<wgt id='1938'> -7.5500971e+01 </wgt>
<wgt id='1939'> -7.5515710e+01 </wgt>
<wgt id='1940'> -7.5545911e+01 </wgt>
<wgt id='1941'> -7.5566626e+01 </wgt>
<wgt id='1942'> -7.5510320e+01 </wgt>
<wgt id='1943'> -7.5523822e+01 </wgt>
<wgt id='1944'> -7.5535368e+01 </wgt>
<wgt id='1945'> -7.5580230e+01 </wgt>
<wgt id='1946'> -7.5555353e+01 </wgt>
<wgt id='1947'> -7.5564065e+01 </wgt>
<wgt id='1948'> -7.5538635e+01 </wgt>
<wgt id='1949'> -7.5557254e+01 </wgt>
<wgt id='1950'> -7.5559544e+01 </wgt>
<wgt id='1951'> -7.5550238e+01 </wgt>
<wgt id='1952'> -7.5558966e+01 </wgt>
<wgt id='1953'> -7.5552424e+01 </wgt>
<wgt id='1954'> -7.5549171e+01 </wgt>
<wgt id='1955'> -7.5554131e+01 </wgt>
<wgt id='1956'> -7.5549244e+01 </wgt>
<wgt id='1957'> -7.5554872e+01 </wgt>
<wgt id='1958'> -7.5551029e+01 </wgt>
<wgt id='1959'> -7.5551179e+01 </wgt>
<wgt id='1960'> -7.5552789e+01 </wgt>
<wgt id='1961'> -7.5550500e+01 </wgt>
<wgt id='1962'> -7.5555889e+01 </wgt>
</rwgt>
</event>
<event npLO=" -1 " npNLO=" 0 ">
 5      0 +1.5146096e+02 6.36799170e+01 7.54677110e-03 1.11065820e-01
        2 -1    0    0  501    0 +0.0000000000e+00 +0.0000000000e+00 +6.7425884000e+02 6.7425884000e+02 0.0000000000e+00 0.0000e+00 9.0000e+00
       -2 -1    0    0    0  501 +0.0000000000e+00 +0.0000000000e+00 -7.0652942000e+00 7.0652942000e+00 0.0000000000e+00 0.0000e+00 9.0000e+00
       15  1    1    2    0    0 +1.4242369000e+01 +6.1683242000e+01 +4.5176265000e+02 4.5618014000e+02 1.7770000000e+00 0.0000e+00 9.0000e+00
      -15  1    1    2    0    0 -6.0115804000e+00 -4.4904370000e+01 +1.7173297000e+02 1.7761732000e+02 1.7770000000e+00 0.0000e+00 9.0000e+00
       22  1    1    2    0    0 -8.2307885000e+00 -1.6778872000e+01 +4.3697928000e+01 4.7526680000e+01 0.0000000000e+00 0.0000e+00 9.0000e+00
#aMCatNLO 1  0  0  2  1 0.19081325E+03 0.00000000E+00 -9  6  0 0.00000000E+00 0.00000000E+00 0.00000000E+00 0.00000000E+00 0.00000000E+00
<rwgt>
<wgt id='1001'> +1.5146000e+02 </wgt>
<wgt id='1002'> +1.5146000e+02 </wgt>
<wgt id='1003'> +1.4537000e+02 </wgt>
<wgt id='1004'> +1.5201000e+02 </wgt>
<wgt id='1005'> +1.5619000e+02 </wgt>
<wgt id='1006'> +1.5419000e+02 </wgt>
<wgt id='1007'> +1.4950000e+02 </wgt>
<wgt id='1008'> +1.5374000e+02 </wgt>
<wgt id='1009'> +1.5046000e+02 </wgt>
<wgt id='1010'> +1.4746000e+02 </wgt>
<wgt id='1011'> +1.5031000e+02 </wgt>
<wgt id='1012'> +1.5131000e+02 </wgt>
<wgt id='1013'> +1.4422000e+02 </wgt>
<wgt id='1014'> +1.5486000e+02 </wgt>
<wgt id='1015'> +1.5748000e+02 </wgt>
<wgt id='1016'> +1.5172000e+02 </wgt>
<wgt id='1017'> +1.5052000e+02 </wgt>
<wgt id='1018'> +1.4761000e+02 </wgt>
<wgt id='1019'> +1.4883000e+02 </wgt>
<wgt id='1020'> +1.4511000e+02 </wgt>
<wgt id='1021'> +1.5141000e+02 </wgt>
<wgt id='1022'> +1.4783000e+02 </wgt>
<wgt id='1023'> +1.5626000e+02 </wgt>
<wgt id='1024'> +1.4675000e+02 </wgt>
<wgt id='1025'> +1.5755000e+02 </wgt>
<wgt id='1026'> +1.5518000e+02 </wgt>
<wgt id='1027'> +1.5177000e+02 </wgt>
<wgt id='1028'> +1.5307000e+02 </wgt>
<wgt id='1029'> +1.4734000e+02 </wgt>
<wgt id='1030'> +1.5216000e+02 </wgt>
<wgt id='1031'> +1.4953000e+02 </wgt>
<wgt id='1032'> +1.5221000e+02 </wgt>
<wgt id='1033'> +1.5551000e+02 </wgt>
<wgt id='1034'> +1.4781000e+02 </wgt>
<wgt id='1035'> +1.5270000e+02 </wgt>
<wgt id='1036'> +1.5668000e+02 </wgt>
<wgt id='1037'> +1.5385000e+02 </wgt>
<wgt id='1038'> +1.5251000e+02 </wgt>
<wgt id='1039'> +1.4852000e+02 </wgt>
<wgt id='1040'> +1.4460000e+02 </wgt>
<wgt id='1041'> +1.5063000e+02 </wgt>
<wgt id='1042'> +1.5215000e+02 </wgt>
<wgt id='1043'> +1.5461000e+02 </wgt>
<wgt id='1044'> +1.5416000e+02 </wgt>
<wgt id='1045'> +1.5252000e+02 </wgt>
<wgt id='1046'> +1.5078000e+02 </wgt>
<wgt id='1047'> +1.5362000e+02 </wgt>
<wgt id='1048'> +1.5456000e+02 </wgt>
<wgt id='1049'> +1.4931000e+02 </wgt>
<wgt id='1050'> +1.5080000e+02 </wgt>
<wgt id='1051'> +1.5248000e+02 </wgt>
<wgt id='1052'> +1.5423000e+02 </wgt>
<wgt id='1053'> +1.5330000e+02 </wgt>
<wgt id='1054'> +1.5243000e+02 </wgt>
<wgt id='1055'> +1.5477000e+02 </wgt>
<wgt id='1056'> +1.5261000e+02 </wgt>
<wgt id='1057'> +1.5276000e+02 </wgt>
<wgt id='1058'> +1.4917000e+02 </wgt>
<wgt id='1059'> +1.5511000e+02 </wgt>
<wgt id='1060'> +1.5392000e+02 </wgt>
<wgt id='1061'> +1.5194000e+02 </wgt>
<wgt id='1062'> +1.5164000e+02 </wgt>
<wgt id='1063'> +1.5240000e+02 </wgt>
<wgt id='1064'> +1.5083000e+02 </wgt>
<wgt id='1065'> +1.5853000e+02 </wgt>
<wgt id='1066'> +1.4122000e+02 </wgt>
<wgt id='1067'> +1.5370000e+02 </wgt>
<wgt id='1068'> +1.5203000e+02 </wgt>
<wgt id='1069'> +1.4897000e+02 </wgt>
<wgt id='1070'> +1.5418000e+02 </wgt>
<wgt id='1071'> +1.5038000e+02 </wgt>
<wgt id='1072'> +1.4940000e+02 </wgt>
<wgt id='1073'> +1.5310000e+02 </wgt>
<wgt id='1074'> +1.5006000e+02 </wgt>
<wgt id='1075'> +1.4471000e+02 </wgt>
<wgt id='1076'> +1.5811000e+02 </wgt>
<wgt id='1077'> +1.5109000e+02 </wgt>
<wgt id='1078'> +1.4929000e+02 </wgt>
<wgt id='1079'> +1.5045000e+02 </wgt>
<wgt id='1080'> +1.5255000e+02 </wgt>
<wgt id='1081'> +1.4858000e+02 </wgt>
<wgt id='1082'> +1.5080000e+02 </wgt>
<wgt id='1083'> +1.5478000e+02 </wgt>
<wgt id='1084'> +1.5624000e+02 </wgt>
<wgt id='1085'> +1.4641000e+02 </wgt>
<wgt id='1086'> +1.5160000e+02 </wgt>
<wgt id='1087'> +1.4998000e+02 </wgt>
<wgt id='1088'> +1.4892000e+02 </wgt>
<wgt id='1089'> +1.5429000e+02 </wgt>
<wgt id='1090'> +1.5352000e+02 </wgt>
<wgt id='1091'> +1.4674000e+02 </wgt>
<wgt id='1092'> +1.5262000e+02 </wgt>
<wgt id='1093'> +1.5097000e+02 </wgt>
<wgt id='1094'> +1.4866000e+02 </wgt>
<wgt id='1095'> +1.4864000e+02 </wgt>
<wgt id='1096'> +1.5235000e+02 </wgt>
<wgt id='1097'> +1.4805000e+02 </wgt>
<wgt id='1098'> +1.5152000e+02 </wgt>
<wgt id='1099'> +1.5078000e+02 </wgt>
<wgt id='1100'> +1.5742000e+02 </wgt>
<wgt id='1101'> +1.5265000e+02 </wgt>
<wgt id='1102'> +1.4825000e+02 </wgt>
<wgt id='1103'> +1.5076000e+02 </wgt>
<wgt id='1104'> +1.5217000e+02 </wgt>
<wgt id='1105'> +1.5146096e+02 </wgt>
<wgt id='1106'> +7.5667533e+01 </wgt>
<wgt id='1107'> +7.5807428e+01 </wgt>
<wgt id='1108'> +8.1046843e+01 </wgt>
<wgt id='1109'> +8.1032607e+01 </wgt>
<wgt id='1110'> +8.1064244e+01 </wgt>
<wgt id='1111'> +6.9589835e+01 </wgt>
<wgt id='1112'> +6.9487036e+01 </wgt>
<wgt id='1113'> +6.9715493e+01 </wgt>
<wgt id='1114'> +8.1355506e+01 </wgt>
<wgt id='1115'> +8.3098072e+01 </wgt>
<wgt id='1116'> +8.2155702e+01 </wgt>
<wgt id='1117'> +8.0445793e+01 </wgt>
<wgt id='1118'> +7.8887627e+01 </wgt>
<wgt id='1119'> +7.9796579e+01 </wgt>
<wgt id='1120'> +8.0704542e+01 </wgt>
<wgt id='1121'> +8.2362927e+01 </wgt>
<wgt id='1122'> +8.2013314e+01 </wgt>
<wgt id='1123'> +8.0373667e+01 </wgt>
<wgt id='1124'> +7.8152055e+01 </wgt>
<wgt id='1125'> +8.1493709e+01 </wgt>
<wgt id='1126'> +7.9932975e+01 </wgt>
<wgt id='1127'> +8.1257414e+01 </wgt>
<wgt id='1128'> +8.3329742e+01 </wgt>
<wgt id='1129'> +8.1754456e+01 </wgt>
<wgt id='1130'> +8.1131005e+01 </wgt>
<wgt id='1131'> +8.2017962e+01 </wgt>
<wgt id='1132'> +8.0767204e+01 </wgt>
<wgt id='1133'> +8.2627989e+01 </wgt>
<wgt id='1134'> +8.0048167e+01 </wgt>
<wgt id='1135'> +7.9631549e+01 </wgt>
<wgt id='1136'> +8.1505612e+01 </wgt>
<wgt id='1137'> +8.2197378e+01 </wgt>
<wgt id='1138'> +8.0523965e+01 </wgt>
<wgt id='1139'> +8.2240705e+01 </wgt>
<wgt id='1140'> +8.4414084e+01 </wgt>
<wgt id='1141'> +8.1739299e+01 </wgt>
<wgt id='1142'> +8.1629548e+01 </wgt>
<wgt id='1143'> +8.2272636e+01 </wgt>
<wgt id='1144'> +8.2765612e+01 </wgt>
<wgt id='1145'> +8.1966329e+01 </wgt>
<wgt id='1146'> +8.0025914e+01 </wgt>
<wgt id='1147'> +8.1807491e+01 </wgt>
<wgt id='1148'> +8.0482386e+01 </wgt>
<wgt id='1149'> +7.9944716e+01 </wgt>
<wgt id='1150'> +8.1694303e+01 </wgt>
<wgt id='1151'> +8.0446775e+01 </wgt>
<wgt id='1152'> +8.0810971e+01 </wgt>
<wgt id='1153'> +8.1094777e+01 </wgt>
<wgt id='1154'> +8.2455246e+01 </wgt>
<wgt id='1155'> +8.2387299e+01 </wgt>
<wgt id='1156'> +8.1825060e+01 </wgt>
<wgt id='1157'> +8.0985553e+01 </wgt>
<wgt id='1158'> +8.1361186e+01 </wgt>
<wgt id='1159'> +8.0740561e+01 </wgt>
<wgt id='1160'> +8.1702518e+01 </wgt>
<wgt id='1161'> +8.2405623e+01 </wgt>
<wgt id='1162'> +8.4328276e+01 </wgt>
<wgt id='1163'> +8.3018041e+01 </wgt>
<wgt id='1164'> +8.0797067e+01 </wgt>
<wgt id='1165'> +8.0526525e+01 </wgt>
<wgt id='1166'> +8.0760246e+01 </wgt>
<wgt id='1167'> +8.3119449e+01 </wgt>
<wgt id='1168'> +8.1078926e+01 </wgt>
<wgt id='1169'> +8.4526181e+01 </wgt>
<wgt id='1170'> +8.0577653e+01 </wgt>
<wgt id='1171'> +8.2232944e+01 </wgt>
<wgt id='1172'> +8.1927090e+01 </wgt>
<wgt id='1173'> +8.2531627e+01 </wgt>
<wgt id='1174'> +8.2832106e+01 </wgt>
<wgt id='1175'> +8.0495943e+01 </wgt>
<wgt id='1176'> +8.0849913e+01 </wgt>
<wgt id='1177'> +8.1519704e+01 </wgt>
<wgt id='1178'> +8.2893853e+01 </wgt>
<wgt id='1179'> +8.1871070e+01 </wgt>
<wgt id='1180'> +8.4115578e+01 </wgt>
<wgt id='1181'> +8.1472305e+01 </wgt>
<wgt id='1182'> +8.1858412e+01 </wgt>
<wgt id='1183'> +8.2363153e+01 </wgt>
<wgt id='1184'> +8.0372068e+01 </wgt>
<wgt id='1185'> +8.0659104e+01 </wgt>
<wgt id='1186'> +8.1838637e+01 </wgt>
<wgt id='1187'> +7.8561024e+01 </wgt>
<wgt id='1188'> +8.0013471e+01 </wgt>
<wgt id='1189'> +8.0625023e+01 </wgt>
<wgt id='1190'> +8.4071290e+01 </wgt>
<wgt id='1191'> +7.9139133e+01 </wgt>
<wgt id='1192'> +8.2460873e+01 </wgt>
<wgt id='1193'> +8.1361341e+01 </wgt>
<wgt id='1194'> +8.0951696e+01 </wgt>
<wgt id='1195'> +8.0369348e+01 </wgt>
<wgt id='1196'> +8.1131005e+01 </wgt>
<wgt id='1197'> +7.8892609e+01 </wgt>
<wgt id='1198'> +8.0987459e+01 </wgt>
<wgt id='1199'> +8.0909719e+01 </wgt>
<wgt id='1200'> +8.1884113e+01 </wgt>
<wgt id='1201'> +8.0596838e+01 </wgt>
<wgt id='1202'> +8.0278494e+01 </wgt>
<wgt id='1203'> +7.6947133e+01 </wgt>
<wgt id='1204'> +8.0812537e+01 </wgt>
<wgt id='1205'> +8.1934047e+01 </wgt>
<wgt id='1206'> +8.1212364e+01 </wgt>
<wgt id='1207'> +8.0314152e+01 </wgt>
<wgt id='1208'> +8.1353307e+01 </wgt>
<wgt id='1209'> +7.9482906e+01 </wgt>
<wgt id='1210'> +8.2319771e+01 </wgt>
<wgt id='1211'> +8.1190771e+01 </wgt>
<wgt id='1212'> +8.1401734e+01 </wgt>
<wgt id='1213'> +8.3299750e+01 </wgt>
<wgt id='1214'> +8.1146853e+01 </wgt>
<wgt id='1215'> +7.9064396e+01 </wgt>
<wgt id='1216'> +7.9921325e+01 </wgt>
<wgt id='1217'> +7.9953347e+01 </wgt>
<wgt id='1218'> +7.9953528e+01 </wgt>
<wgt id='1219'> +7.9906376e+01 </wgt>
<wgt id='1220'> +8.0187190e+01 </wgt>
<wgt id='1221'> +7.9901693e+01 </wgt>
<wgt id='1222'> +7.9878082e+01 </wgt>
<wgt id='1223'> +7.9864244e+01 </wgt>
<wgt id='1224'> +7.9666558e+01 </wgt>
<wgt id='1225'> +7.9922199e+01 </wgt>
<wgt id='1226'> +7.9659403e+01 </wgt>
<wgt id='1227'> +7.9870613e+01 </wgt>
<wgt id='1228'> +7.9917770e+01 </wgt>
<wgt id='1229'> +7.9845471e+01 </wgt>
<wgt id='1230'> +8.0174296e+01 </wgt>
<wgt id='1231'> +7.9635737e+01 </wgt>
<wgt id='1232'> +7.9750314e+01 </wgt>
<wgt id='1233'> +7.9935027e+01 </wgt>
<wgt id='1234'> +7.9960220e+01 </wgt>
<wgt id='1235'> +7.9964100e+01 </wgt>
<wgt id='1236'> +7.9670498e+01 </wgt>
<wgt id='1237'> +8.0072050e+01 </wgt>
<wgt id='1238'> +8.0085571e+01 </wgt>
<wgt id='1239'> +8.0282374e+01 </wgt>
<wgt id='1240'> +7.9901310e+01 </wgt>
<wgt id='1241'> +7.9559028e+01 </wgt>
<wgt id='1242'> +7.9794350e+01 </wgt>
<wgt id='1243'> +8.0094321e+01 </wgt>
<wgt id='1244'> +8.0016433e+01 </wgt>
<wgt id='1245'> +8.0446399e+01 </wgt>
<wgt id='1246'> +7.9304920e+01 </wgt>
<wgt id='1247'> +7.9525386e+01 </wgt>
<wgt id='1248'> +7.9960724e+01 </wgt>
<wgt id='1249'> +8.0049793e+01 </wgt>
<wgt id='1250'> +8.0041657e+01 </wgt>
<wgt id='1251'> +8.0106672e+01 </wgt>
<wgt id='1252'> +8.0072775e+01 </wgt>
<wgt id='1253'> +7.9777134e+01 </wgt>
<wgt id='1254'> +8.0007698e+01 </wgt>
<wgt id='1255'> +7.9890781e+01 </wgt>
<wgt id='1256'> +7.9888285e+01 </wgt>
<wgt id='1257'> +7.9975911e+01 </wgt>
<wgt id='1258'> +8.0002462e+01 </wgt>
<wgt id='1259'> +7.9747214e+01 </wgt>
<wgt id='1260'> +7.9960170e+01 </wgt>
<wgt id='1261'> +7.9981360e+01 </wgt>
<wgt id='1262'> +7.9924383e+01 </wgt>
<wgt id='1263'> +7.9930799e+01 </wgt>
<wgt id='1264'> +8.0067796e+01 </wgt>
<wgt id='1265'> +7.9946645e+01 </wgt>
<wgt id='1266'> +7.9820119e+01 </wgt>
<wgt id='1267'> +7.9895937e+01 </wgt>
<wgt id='1268'> +7.9964680e+01 </wgt>
<wgt id='1269'> +7.9801540e+01 </wgt>
<wgt id='1270'> +7.9920335e+01 </wgt>
<wgt id='1271'> +7.9965251e+01 </wgt>
<wgt id='1272'> +7.9793564e+01 </wgt>
<wgt id='1273'> +7.9951269e+01 </wgt>
<wgt id='1274'> +7.9816182e+01 </wgt>
<wgt id='1275'> +7.9959488e+01 </wgt>
<wgt id='1276'> +7.9926078e+01 </wgt>
<wgt id='1277'> +7.9891901e+01 </wgt>
<wgt id='1278'> +7.9824498e+01 </wgt>
<wgt id='1279'> +7.9959669e+01 </wgt>
<wgt id='1280'> +7.9886526e+01 </wgt>
<wgt id='1281'> +8.0014415e+01 </wgt>
<wgt id='1282'> +7.9911726e+01 </wgt>
<wgt id='1283'> +7.9830834e+01 </wgt>
<wgt id='1284'> +8.0008687e+01 </wgt>
<wgt id='1285'> +7.9849202e+01 </wgt>
<wgt id='1286'> +7.9929746e+01 </wgt>
<wgt id='1287'> +7.9863142e+01 </wgt>
<wgt id='1288'> +7.9961813e+01 </wgt>
<wgt id='1289'> +7.9884204e+01 </wgt>
<wgt id='1290'> +8.0011105e+01 </wgt>
<wgt id='1291'> +7.9883625e+01 </wgt>
<wgt id='1292'> +7.9938001e+01 </wgt>
<wgt id='1293'> +7.9905186e+01 </wgt>
<wgt id='1294'> +7.9926401e+01 </wgt>
<wgt id='1295'> +7.9913349e+01 </wgt>
<wgt id='1296'> +7.9906181e+01 </wgt>
<wgt id='1297'> +7.9992143e+01 </wgt>
<wgt id='1298'> +7.9851881e+01 </wgt>
<wgt id='1299'> +7.9937307e+01 </wgt>
<wgt id='1300'> +7.9841575e+01 </wgt>
<wgt id='1301'> +7.9869513e+01 </wgt>
<wgt id='1302'> +7.9923754e+01 </wgt>
<wgt id='1303'> +7.9950184e+01 </wgt>
<wgt id='1304'> +7.9875334e+01 </wgt>
<wgt id='1305'> +7.9866531e+01 </wgt>
<wgt id='1306'> +7.9932889e+01 </wgt>
<wgt id='1307'> +7.9935012e+01 </wgt>
<wgt id='1308'> +7.9927875e+01 </wgt>
<wgt id='1309'> +7.9876405e+01 </wgt>
<wgt id='1310'> +7.9950271e+01 </wgt>
<wgt id='1311'> +7.9944072e+01 </wgt>
<wgt id='1312'> +7.9852256e+01 </wgt>
<wgt id='1313'> +7.9916590e+01 </wgt>
<wgt id='1314'> +7.9956786e+01 </wgt>
<wgt id='1315'> +7.9868660e+01 </wgt>
<wgt id='1316'> +7.9890261e+01 </wgt>
<wgt id='1317'> +7.9419292e+01 </wgt>
<wgt id='1318'> +8.0697278e+01 </wgt>
<wgt id='1319'> +7.8075176e+01 </wgt>
<wgt id='1320'> +7.9283004e+01 </wgt>
<wgt id='1321'> +7.9362564e+01 </wgt>
<wgt id='1322'> +7.9966201e+01 </wgt>
<wgt id='1323'> +8.0089868e+01 </wgt>
<wgt id='1324'> +8.0008783e+01 </wgt>
<wgt id='1325'> +7.8732798e+01 </wgt>
<wgt id='1326'> +8.0109332e+01 </wgt>
<wgt id='1327'> +7.8670474e+01 </wgt>
<wgt id='1328'> +8.1223815e+01 </wgt>
<wgt id='1329'> +7.7917547e+01 </wgt>
<wgt id='1330'> +8.1321724e+01 </wgt>
<wgt id='1331'> +8.0499704e+01 </wgt>
<wgt id='1332'> +7.8720973e+01 </wgt>
<wgt id='1333'> +7.7781912e+01 </wgt>
<wgt id='1334'> +7.9814678e+01 </wgt>
<wgt id='1335'> +7.9887885e+01 </wgt>
<wgt id='1336'> +7.8299546e+01 </wgt>
<wgt id='1337'> +8.0422827e+01 </wgt>
<wgt id='1338'> +7.7938805e+01 </wgt>
<wgt id='1339'> +8.0387913e+01 </wgt>
<wgt id='1340'> +7.8099470e+01 </wgt>
<wgt id='1341'> +7.9286745e+01 </wgt>
<wgt id='1342'> +7.9207979e+01 </wgt>
<wgt id='1343'> +7.9144752e+01 </wgt>
<wgt id='1344'> +7.9412016e+01 </wgt>
<wgt id='1345'> +7.8661896e+01 </wgt>
<wgt id='1346'> +7.9968364e+01 </wgt>
<wgt id='1347'> +7.8983538e+01 </wgt>
<wgt id='1348'> +7.9630304e+01 </wgt>
<wgt id='1349'> +7.8412263e+01 </wgt>
<wgt id='1350'> +7.9578541e+01 </wgt>
<wgt id='1351'> +7.9351144e+01 </wgt>
<wgt id='1352'> +7.9198186e+01 </wgt>
<wgt id='1353'> +7.9451575e+01 </wgt>
<wgt id='1354'> +7.8871320e+01 </wgt>
<wgt id='1355'> +7.8820954e+01 </wgt>
<wgt id='1356'> +7.9784895e+01 </wgt>
<wgt id='1357'> +7.9334825e+01 </wgt>
<wgt id='1358'> +7.8882257e+01 </wgt>
<wgt id='1359'> +7.8462813e+01 </wgt>
<wgt id='1360'> +7.9509120e+01 </wgt>
<wgt id='1361'> +8.0415738e+01 </wgt>
<wgt id='1362'> +7.8125358e+01 </wgt>
<wgt id='1363'> +7.9526275e+01 </wgt>
<wgt id='1364'> +7.8807361e+01 </wgt>
<wgt id='1365'> +7.9441931e+01 </wgt>
<wgt id='1366'> +7.9338409e+01 </wgt>
<wgt id='1367'> +7.9388506e+01 </wgt>
<wgt id='1368'> +7.9471788e+01 </wgt>
<wgt id='1369'> +8.0027310e+01 </wgt>
<wgt id='1370'> +7.9101096e+01 </wgt>
<wgt id='1371'> +7.8893774e+01 </wgt>
<wgt id='1372'> +7.9668892e+01 </wgt>
<wgt id='1373'> +7.8994625e+01 </wgt>
<wgt id='1374'> +7.8707529e+01 </wgt>
<wgt id='1375'> +7.7471564e+01 </wgt>
<wgt id='1376'> +8.0580221e+01 </wgt>
<wgt id='1377'> +7.8471341e+01 </wgt>
<wgt id='1378'> +7.9983641e+01 </wgt>
<wgt id='1379'> +8.2144409e+01 </wgt>
<wgt id='1380'> +8.1395544e+01 </wgt>
<wgt id='1381'> +8.2828145e+01 </wgt>
<wgt id='1382'> +6.9937974e+01 </wgt>
<wgt id='1383'> +7.5162703e+01 </wgt>
<wgt id='1384'> +8.0233278e+01 </wgt>
<wgt id='1385'> +6.6598055e+01 </wgt>
<wgt id='1386'> +6.6508781e+01 </wgt>
<wgt id='1387'> +6.6699215e+01 </wgt>
<wgt id='1388'> +6.6357496e+01 </wgt>
<wgt id='1389'> +6.7009952e+01 </wgt>
<wgt id='1390'> +6.6781657e+01 </wgt>
<wgt id='1391'> +6.6376382e+01 </wgt>
<wgt id='1392'> +6.6992796e+01 </wgt>
<wgt id='1393'> +6.6327683e+01 </wgt>
<wgt id='1394'> +6.6555955e+01 </wgt>
<wgt id='1395'> +6.6646908e+01 </wgt>
<wgt id='1396'> +6.6405858e+01 </wgt>
<wgt id='1397'> +6.6696407e+01 </wgt>
<wgt id='1398'> +6.6243993e+01 </wgt>
<wgt id='1399'> +6.6855130e+01 </wgt>
<wgt id='1400'> +6.6974709e+01 </wgt>
<wgt id='1401'> +6.6298822e+01 </wgt>
<wgt id='1402'> +6.7040939e+01 </wgt>
<wgt id='1403'> +6.6395993e+01 </wgt>
<wgt id='1404'> +6.5127710e+01 </wgt>
<wgt id='1405'> +6.7320674e+01 </wgt>
<wgt id='1406'> +6.6326429e+01 </wgt>
<wgt id='1407'> +6.7071778e+01 </wgt>
<wgt id='1408'> +6.6542806e+01 </wgt>
<wgt id='1409'> +6.6703789e+01 </wgt>
<wgt id='1410'> +6.6712232e+01 </wgt>
<wgt id='1411'> +6.6277995e+01 </wgt>
<wgt id='1412'> +6.6910126e+01 </wgt>
<wgt id='1413'> +6.6004140e+01 </wgt>
<wgt id='1414'> +6.6477150e+01 </wgt>
<wgt id='1415'> +6.6618068e+01 </wgt>
<wgt id='1416'> +6.6718691e+01 </wgt>
<wgt id='1417'> +6.6568540e+01 </wgt>
<wgt id='1418'> +6.6417725e+01 </wgt>
<wgt id='1419'> +6.6918385e+01 </wgt>
<wgt id='1420'> +6.6374880e+01 </wgt>
<wgt id='1421'> +6.6601381e+01 </wgt>
<wgt id='1422'> +6.6740292e+01 </wgt>
<wgt id='1423'> +6.6457450e+01 </wgt>
<wgt id='1424'> +6.6769108e+01 </wgt>
<wgt id='1425'> +6.6068277e+01 </wgt>
<wgt id='1426'> +6.6907770e+01 </wgt>
<wgt id='1427'> +6.6746083e+01 </wgt>
<wgt id='1428'> +6.6395429e+01 </wgt>
<wgt id='1429'> +6.6089515e+01 </wgt>
<wgt id='1430'> +6.6926991e+01 </wgt>
<wgt id='1431'> +6.6850539e+01 </wgt>
<wgt id='1432'> +6.6895594e+01 </wgt>
<wgt id='1433'> +6.6983021e+01 </wgt>
<wgt id='1434'> +6.6738594e+01 </wgt>
<wgt id='1435'> +6.6962830e+01 </wgt>
<wgt id='1436'> +8.5145146e+01 </wgt>
<wgt id='1437'> +8.5250179e+01 </wgt>
<wgt id='1438'> +8.5018579e+01 </wgt>
<wgt id='1439'> +8.5144899e+01 </wgt>
<wgt id='1440'> +8.5204966e+01 </wgt>
<wgt id='1441'> +8.5392879e+01 </wgt>
<wgt id='1442'> +8.5072311e+01 </wgt>
<wgt id='1443'> +8.5462066e+01 </wgt>
<wgt id='1444'> +8.5060286e+01 </wgt>
<wgt id='1445'> +8.4885537e+01 </wgt>
<wgt id='1446'> +8.5201239e+01 </wgt>
<wgt id='1447'> +8.5350961e+01 </wgt>
<wgt id='1448'> +8.4930723e+01 </wgt>
<wgt id='1449'> +8.5398215e+01 </wgt>
<wgt id='1450'> +8.5131091e+01 </wgt>
<wgt id='1451'> +8.5216393e+01 </wgt>
<wgt id='1452'> +8.4859593e+01 </wgt>
<wgt id='1453'> +8.4986015e+01 </wgt>
<wgt id='1454'> +8.5179490e+01 </wgt>
<wgt id='1455'> +8.4873350e+01 </wgt>
<wgt id='1456'> +8.4868656e+01 </wgt>
<wgt id='1457'> +8.5312837e+01 </wgt>
<wgt id='1458'> +8.4844810e+01 </wgt>
<wgt id='1459'> +8.5073229e+01 </wgt>
<wgt id='1460'> +8.5225326e+01 </wgt>
<wgt id='1461'> +8.5603651e+01 </wgt>
<wgt id='1462'> +8.5307290e+01 </wgt>
<wgt id='1463'> +8.5293306e+01 </wgt>
<wgt id='1464'> +8.5374619e+01 </wgt>
<wgt id='1465'> +8.3951406e+01 </wgt>
<wgt id='1466'> +7.6687249e+01 </wgt>
<wgt id='1467'> +7.6302471e+01 </wgt>
<wgt id='1468'> +7.5943832e+01 </wgt>
<wgt id='1469'> +7.7658928e+01 </wgt>
<wgt id='1470'> +7.6415792e+01 </wgt>
<wgt id='1471'> +7.6970077e+01 </wgt>
<wgt id='1472'> +7.5874660e+01 </wgt>
<wgt id='1473'> +7.7456672e+01 </wgt>
<wgt id='1474'> +7.7142591e+01 </wgt>
<wgt id='1475'> +7.6028546e+01 </wgt>
<wgt id='1476'> +7.6195133e+01 </wgt>
<wgt id='1477'> +7.6208865e+01 </wgt>
<wgt id='1478'> +7.6355946e+01 </wgt>
<wgt id='1479'> +7.7678797e+01 </wgt>
<wgt id='1480'> +7.6639776e+01 </wgt>
<wgt id='1481'> +7.6412189e+01 </wgt>
<wgt id='1482'> +7.6545718e+01 </wgt>
<wgt id='1483'> +7.6396407e+01 </wgt>
<wgt id='1484'> +7.7424711e+01 </wgt>
<wgt id='1485'> +7.6405176e+01 </wgt>
<wgt id='1486'> +7.6756293e+01 </wgt>
<wgt id='1487'> +7.6613345e+01 </wgt>
<wgt id='1488'> +7.6096436e+01 </wgt>
<wgt id='1489'> +7.7019648e+01 </wgt>
<wgt id='1490'> +7.6735459e+01 </wgt>
<wgt id='1491'> +7.7194608e+01 </wgt>
<wgt id='1492'> +7.6677379e+01 </wgt>
<wgt id='1493'> +7.6551232e+01 </wgt>
<wgt id='1494'> +7.6991727e+01 </wgt>
<wgt id='1495'> +7.6566249e+01 </wgt>
<wgt id='1496'> +7.6513114e+01 </wgt>
<wgt id='1497'> +7.6727011e+01 </wgt>
<wgt id='1498'> +7.6439808e+01 </wgt>
<wgt id='1499'> +7.6418927e+01 </wgt>
<wgt id='1500'> +7.6760990e+01 </wgt>
<wgt id='1501'> +7.6876611e+01 </wgt>
<wgt id='1502'> +7.6558144e+01 </wgt>
<wgt id='1503'> +7.6510189e+01 </wgt>
<wgt id='1504'> +7.6741193e+01 </wgt>
<wgt id='1505'> +7.6807325e+01 </wgt>
<wgt id='1506'> +7.6746543e+01 </wgt>
<wgt id='1507'> +7.6798737e+01 </wgt>
<wgt id='1508'> +7.6632041e+01 </wgt>
<wgt id='1509'> +7.6642095e+01 </wgt>
<wgt id='1510'> +7.6821550e+01 </wgt>
<wgt id='1511'> +7.6704023e+01 </wgt>
<wgt id='1512'> +7.6587309e+01 </wgt>
<wgt id='1513'> +7.6565028e+01 </wgt>
<wgt id='1514'> +7.6599210e+01 </wgt>
<wgt id='1515'> +7.6678589e+01 </wgt>
<wgt id='1516'> +7.6624178e+01 </wgt>
<wgt id='1517'> +7.6661718e+01 </wgt>
<wgt id='1518'> +7.6642322e+01 </wgt>
<wgt id='1519'> +7.6709031e+01 </wgt>
<wgt id='1520'> +7.6698225e+01 </wgt>
<wgt id='1521'> +7.6652654e+01 </wgt>
<wgt id='1522'> +7.6783025e+01 </wgt>
<wgt id='1523'> +7.6694886e+01 </wgt>
<wgt id='1524'> +7.6733550e+01 </wgt>
<wgt id='1525'> +7.6611678e+01 </wgt>
<wgt id='1526'> +7.6573390e+01 </wgt>
<wgt id='1527'> +7.6619585e+01 </wgt>
<wgt id='1528'> +7.6639397e+01 </wgt>
<wgt id='1529'> +7.6671893e+01 </wgt>
<wgt id='1530'> +7.6656338e+01 </wgt>
<wgt id='1531'> +7.6683598e+01 </wgt>
<wgt id='1532'> +7.6629934e+01 </wgt>
<wgt id='1533'> +7.6639892e+01 </wgt>
<wgt id='1534'> +7.6698911e+01 </wgt>
<wgt id='1535'> +7.6692634e+01 </wgt>
<wgt id='1536'> +7.6671633e+01 </wgt>
<wgt id='1537'> +7.6649680e+01 </wgt>
<wgt id='1538'> +7.6671901e+01 </wgt>
<wgt id='1539'> +7.6693460e+01 </wgt>
<wgt id='1540'> +7.6645378e+01 </wgt>
<wgt id='1541'> +7.6699697e+01 </wgt>
<wgt id='1542'> +7.6683966e+01 </wgt>
<wgt id='1543'> +7.6659430e+01 </wgt>
<wgt id='1544'> +7.6670589e+01 </wgt>
<wgt id='1545'> +7.6741843e+01 </wgt>
<wgt id='1546'> +7.6687598e+01 </wgt>
<wgt id='1547'> +7.6678132e+01 </wgt>
<wgt id='1548'> +7.6651193e+01 </wgt>
<wgt id='1549'> +7.6692830e+01 </wgt>
<wgt id='1550'> +7.6697810e+01 </wgt>
<wgt id='1551'> +7.6721609e+01 </wgt>
<wgt id='1552'> +7.6719546e+01 </wgt>
<wgt id='1553'> +7.6675462e+01 </wgt>
<wgt id='1554'> +7.6663068e+01 </wgt>
<wgt id='1555'> +7.6703857e+01 </wgt>
<wgt id='1556'> +7.6674194e+01 </wgt>
<wgt id='1557'> +7.6680138e+01 </wgt>
<wgt id='1558'> +7.6700714e+01 </wgt>
<wgt id='1559'> +7.6687822e+01 </wgt>
<wgt id='1560'> +7.6694281e+01 </wgt>
<wgt id='1561'> +7.6666782e+01 </wgt>
<wgt id='1562'> +7.6707455e+01 </wgt>
<wgt id='1563'> +7.6674395e+01 </wgt>
<wgt id='1564'> +7.6688911e+01 </wgt>
<wgt id='1565'> +7.6688471e+01 </wgt>
<wgt id='1566'> +7.6684552e+01 </wgt>
<wgt id='1567'> +7.5962233e+01 </wgt>
<wgt id='1568'> +7.7396506e+01 </wgt>
<wgt id='1569'> +8.0437597e+01 </wgt>
<wgt id='1570'> +8.0712345e+01 </wgt>
<wgt id='1571'> +7.9943661e+01 </wgt>
<wgt id='1572'> +8.0990860e+01 </wgt>
<wgt id='1573'> +8.1173332e+01 </wgt>
<wgt id='1574'> +8.1027765e+01 </wgt>
<wgt id='1575'> +8.0967645e+01 </wgt>
<wgt id='1576'> +8.0695023e+01 </wgt>
<wgt id='1577'> +8.0618517e+01 </wgt>
<wgt id='1578'> +8.0737736e+01 </wgt>
<wgt id='1579'> +8.0629503e+01 </wgt>
<wgt id='1580'> +8.0890284e+01 </wgt>
<wgt id='1581'> +8.0054543e+01 </wgt>
<wgt id='1582'> +8.0708903e+01 </wgt>
<wgt id='1583'> +7.9824792e+01 </wgt>
<wgt id='1584'> +8.0023537e+01 </wgt>
<wgt id='1585'> +8.0278610e+01 </wgt>
<wgt id='1586'> +8.0677937e+01 </wgt>
<wgt id='1587'> +8.0584876e+01 </wgt>
<wgt id='1588'> +7.9465585e+01 </wgt>
<wgt id='1589'> +8.0688628e+01 </wgt>
<wgt id='1590'> +8.0732242e+01 </wgt>
<wgt id='1591'> +8.0317498e+01 </wgt>
<wgt id='1592'> +8.0777033e+01 </wgt>
<wgt id='1593'> +8.0882190e+01 </wgt>
<wgt id='1594'> +8.0514617e+01 </wgt>
<wgt id='1595'> +8.0307128e+01 </wgt>
<wgt id='1596'> +8.0497033e+01 </wgt>
<wgt id='1597'> +8.0613207e+01 </wgt>
<wgt id='1598'> +8.0520088e+01 </wgt>
<wgt id='1599'> +8.0602768e+01 </wgt>
<wgt id='1600'> +8.0792193e+01 </wgt>
<wgt id='1601'> +8.0732529e+01 </wgt>
<wgt id='1602'> +8.0794658e+01 </wgt>
<wgt id='1603'> +8.0733428e+01 </wgt>
<wgt id='1604'> +8.0290283e+01 </wgt>
<wgt id='1605'> +8.0584795e+01 </wgt>
<wgt id='1606'> +8.0378504e+01 </wgt>
<wgt id='1607'> +8.0512834e+01 </wgt>
<wgt id='1608'> +8.0406197e+01 </wgt>
<wgt id='1609'> +8.0392480e+01 </wgt>
<wgt id='1610'> +8.0470701e+01 </wgt>
<wgt id='1611'> +8.0538138e+01 </wgt>
<wgt id='1612'> +8.0228987e+01 </wgt>
<wgt id='1613'> +8.0528069e+01 </wgt>
<wgt id='1614'> +8.0304842e+01 </wgt>
<wgt id='1615'> +8.0498693e+01 </wgt>
<wgt id='1616'> +8.0454408e+01 </wgt>
<wgt id='1617'> +8.0623117e+01 </wgt>
<wgt id='1618'> +8.0348895e+01 </wgt>
<wgt id='1619'> +8.0506362e+01 </wgt>
<wgt id='1620'> +8.0447034e+01 </wgt>
<wgt id='1621'> +8.0342237e+01 </wgt>
<wgt id='1622'> +8.0476661e+01 </wgt>
<wgt id='1623'> +8.0392649e+01 </wgt>
<wgt id='1624'> +8.0484994e+01 </wgt>
<wgt id='1625'> +8.0461549e+01 </wgt>
<wgt id='1626'> +8.0387230e+01 </wgt>
<wgt id='1627'> +8.0372883e+01 </wgt>
<wgt id='1628'> +8.0429368e+01 </wgt>
<wgt id='1629'> +8.0376815e+01 </wgt>
<wgt id='1630'> +8.0470652e+01 </wgt>
<wgt id='1631'> +8.0438544e+01 </wgt>
<wgt id='1632'> +8.0485491e+01 </wgt>
<wgt id='1633'> +8.0325817e+01 </wgt>
<wgt id='1634'> +8.0475231e+01 </wgt>
<wgt id='1635'> +8.0464156e+01 </wgt>
<wgt id='1636'> +8.0471321e+01 </wgt>
<wgt id='1637'> +8.0477147e+01 </wgt>
<wgt id='1638'> +8.0473218e+01 </wgt>
<wgt id='1639'> +8.0444328e+01 </wgt>
<wgt id='1640'> +8.0475025e+01 </wgt>
<wgt id='1641'> +8.0475836e+01 </wgt>
<wgt id='1642'> +8.0435282e+01 </wgt>
<wgt id='1643'> +8.0428047e+01 </wgt>
<wgt id='1644'> +8.0409996e+01 </wgt>
<wgt id='1645'> +8.0387951e+01 </wgt>
<wgt id='1646'> +8.0475142e+01 </wgt>
<wgt id='1647'> +8.0412965e+01 </wgt>
<wgt id='1648'> +8.0455684e+01 </wgt>
<wgt id='1649'> +8.0481813e+01 </wgt>
<wgt id='1650'> +8.0441821e+01 </wgt>
<wgt id='1651'> +8.0458673e+01 </wgt>
<wgt id='1652'> +8.0449314e+01 </wgt>
<wgt id='1653'> +8.0442543e+01 </wgt>
<wgt id='1654'> +8.0420022e+01 </wgt>
<wgt id='1655'> +8.0464375e+01 </wgt>
<wgt id='1656'> +8.0392177e+01 </wgt>
<wgt id='1657'> +8.0435918e+01 </wgt>
<wgt id='1658'> +8.0432206e+01 </wgt>
<wgt id='1659'> +8.0480235e+01 </wgt>
<wgt id='1660'> +8.0404565e+01 </wgt>
<wgt id='1661'> +8.0441413e+01 </wgt>
<wgt id='1662'> +8.0421027e+01 </wgt>
<wgt id='1663'> +8.0453538e+01 </wgt>
<wgt id='1664'> +8.0427135e+01 </wgt>
<wgt id='1665'> +8.0410870e+01 </wgt>
<wgt id='1666'> +8.0444866e+01 </wgt>
<wgt id='1667'> +8.0446483e+01 </wgt>
<wgt id='1668'> +8.0441318e+01 </wgt>
<wgt id='1669'> +8.0434248e+01 </wgt>
<wgt id='1670'> +7.9673740e+01 </wgt>
<wgt id='1671'> +8.1008153e+01 </wgt>
<wgt id='1672'> +7.6692484e+01 </wgt>
<wgt id='1673'> +7.5721674e+01 </wgt>
<wgt id='1674'> +7.5880416e+01 </wgt>
<wgt id='1675'> +7.6665882e+01 </wgt>
<wgt id='1676'> +7.8382987e+01 </wgt>
<wgt id='1677'> +7.6974588e+01 </wgt>
<wgt id='1678'> +7.6392104e+01 </wgt>
<wgt id='1679'> +7.6683358e+01 </wgt>
<wgt id='1680'> +7.6856408e+01 </wgt>
<wgt id='1681'> +7.6857808e+01 </wgt>
<wgt id='1682'> +7.6660983e+01 </wgt>
<wgt id='1683'> +7.6117815e+01 </wgt>
<wgt id='1684'> +7.7187261e+01 </wgt>
<wgt id='1685'> +7.6647925e+01 </wgt>
<wgt id='1686'> +7.6621747e+01 </wgt>
<wgt id='1687'> +7.6941352e+01 </wgt>
<wgt id='1688'> +7.6885292e+01 </wgt>
<wgt id='1689'> +7.5994919e+01 </wgt>
<wgt id='1690'> +7.6727368e+01 </wgt>
<wgt id='1691'> +7.6968103e+01 </wgt>
<wgt id='1692'> +7.7172139e+01 </wgt>
<wgt id='1693'> +7.6413820e+01 </wgt>
<wgt id='1694'> +7.6459942e+01 </wgt>
<wgt id='1695'> +7.6768033e+01 </wgt>
<wgt id='1696'> +7.6345869e+01 </wgt>
<wgt id='1697'> +7.6841451e+01 </wgt>
<wgt id='1698'> +7.6543742e+01 </wgt>
<wgt id='1699'> +7.6835696e+01 </wgt>
<wgt id='1700'> +7.6484351e+01 </wgt>
<wgt id='1701'> +7.6355046e+01 </wgt>
<wgt id='1702'> +7.6799145e+01 </wgt>
<wgt id='1703'> +7.5962233e+01 </wgt>
<wgt id='1704'> +7.7396506e+01 </wgt>
<wgt id='1705'> +8.0442806e+01 </wgt>
<wgt id='1706'> +8.0658437e+01 </wgt>
<wgt id='1707'> +8.0385724e+01 </wgt>
<wgt id='1708'> +8.0442021e+01 </wgt>
<wgt id='1709'> +7.8549888e+01 </wgt>
<wgt id='1710'> +7.9811655e+01 </wgt>
<wgt id='1711'> +8.0444304e+01 </wgt>
<wgt id='1712'> +8.0390651e+01 </wgt>
<wgt id='1713'> +8.0314515e+01 </wgt>
<wgt id='1714'> +8.0067180e+01 </wgt>
<wgt id='1715'> +8.0564197e+01 </wgt>
<wgt id='1716'> +8.0475365e+01 </wgt>
<wgt id='1717'> +8.0443251e+01 </wgt>
<wgt id='1718'> +8.0511211e+01 </wgt>
<wgt id='1719'> +8.0405256e+01 </wgt>
<wgt id='1720'> +8.0292486e+01 </wgt>
<wgt id='1721'> +8.0337818e+01 </wgt>
<wgt id='1722'> +8.0142677e+01 </wgt>
<wgt id='1723'> +8.0486334e+01 </wgt>
<wgt id='1724'> +8.0525853e+01 </wgt>
<wgt id='1725'> +7.9853942e+01 </wgt>
<wgt id='1726'> +8.0445039e+01 </wgt>
<wgt id='1727'> +8.0716147e+01 </wgt>
<wgt id='1728'> +8.0425461e+01 </wgt>
<wgt id='1729'> +8.0509592e+01 </wgt>
<wgt id='1730'> +8.0488400e+01 </wgt>
<wgt id='1731'> +8.0629323e+01 </wgt>
<wgt id='1732'> +8.0567983e+01 </wgt>
<wgt id='1733'> +8.0560912e+01 </wgt>
<wgt id='1734'> +8.0484821e+01 </wgt>
<wgt id='1735'> +8.0772639e+01 </wgt>
<wgt id='1736'> +7.9673740e+01 </wgt>
<wgt id='1737'> +8.1008153e+01 </wgt>
<wgt id='1738'> +8.5968885e+01 </wgt>
<wgt id='1739'> +8.6085903e+01 </wgt>
<wgt id='1740'> +8.5852671e+01 </wgt>
<wgt id='1741'> +8.5975913e+01 </wgt>
<wgt id='1742'> +8.5961594e+01 </wgt>
<wgt id='1743'> +8.5896441e+01 </wgt>
<wgt id='1744'> +8.6040465e+01 </wgt>
<wgt id='1745'> +8.5749010e+01 </wgt>
<wgt id='1746'> +8.6180598e+01 </wgt>
<wgt id='1747'> +8.6445378e+01 </wgt>
<wgt id='1748'> +8.5491837e+01 </wgt>
<wgt id='1749'> +8.6134939e+01 </wgt>
<wgt id='1750'> +8.5755390e+01 </wgt>
<wgt id='1751'> +8.5676444e+01 </wgt>
<wgt id='1752'> +8.6255601e+01 </wgt>
<wgt id='1753'> +8.5784475e+01 </wgt>
<wgt id='1754'> +8.6276451e+01 </wgt>
<wgt id='1755'> +8.5690795e+01 </wgt>
<wgt id='1756'> +8.6098337e+01 </wgt>
<wgt id='1757'> +8.5894061e+01 </wgt>
<wgt id='1758'> +8.6097913e+01 </wgt>
<wgt id='1759'> +8.6257806e+01 </wgt>
<wgt id='1760'> +8.5618707e+01 </wgt>
<wgt id='1761'> +8.5339849e+01 </wgt>
<wgt id='1762'> +8.6319841e+01 </wgt>
<wgt id='1763'> +8.6528526e+01 </wgt>
<wgt id='1764'> +8.5488150e+01 </wgt>
<wgt id='1765'> +8.5516448e+01 </wgt>
<wgt id='1766'> +8.6265484e+01 </wgt>
<wgt id='1767'> +8.5968885e+01 </wgt>
<wgt id='1768'> +8.6506930e+01 </wgt>
<wgt id='1769'> +8.5287405e+01 </wgt>
<wgt id='1770'> +8.6576824e+01 </wgt>
<wgt id='1771'> +8.5506395e+01 </wgt>
<wgt id='1772'> +8.6597144e+01 </wgt>
<wgt id='1773'> +8.5593834e+01 </wgt>
<wgt id='1774'> +8.5833619e+01 </wgt>
<wgt id='1775'> +8.6118330e+01 </wgt>
<wgt id='1776'> +8.5354908e+01 </wgt>
<wgt id='1777'> +8.6609132e+01 </wgt>
<wgt id='1778'> +8.5874923e+01 </wgt>
<wgt id='1779'> +8.6680371e+01 </wgt>
<wgt id='1780'> +8.6507765e+01 </wgt>
<wgt id='1781'> +8.8986066e+01 </wgt>
<wgt id='1782'> +8.9131718e+01 </wgt>
<wgt id='1783'> +8.8880772e+01 </wgt>
<wgt id='1784'> +8.9033192e+01 </wgt>
<wgt id='1785'> +8.8978517e+01 </wgt>
<wgt id='1786'> +8.8947592e+01 </wgt>
<wgt id='1787'> +8.9063400e+01 </wgt>
<wgt id='1788'> +8.8687291e+01 </wgt>
<wgt id='1789'> +8.9311066e+01 </wgt>
<wgt id='1790'> +8.9387031e+01 </wgt>
<wgt id='1791'> +8.8616529e+01 </wgt>
<wgt id='1792'> +8.9169173e+01 </wgt>
<wgt id='1793'> +8.8840902e+01 </wgt>
<wgt id='1794'> +8.8615713e+01 </wgt>
<wgt id='1795'> +8.9402768e+01 </wgt>
<wgt id='1796'> +8.8946569e+01 </wgt>
<wgt id='1797'> +8.9258111e+01 </wgt>
<wgt id='1798'> +8.9147826e+01 </wgt>
<wgt id='1799'> +8.8847222e+01 </wgt>
<wgt id='1800'> +8.9100445e+01 </wgt>
<wgt id='1801'> +8.8903915e+01 </wgt>
<wgt id='1802'> +8.8335398e+01 </wgt>
<wgt id='1803'> +8.9606071e+01 </wgt>
<wgt id='1804'> +8.9326234e+01 </wgt>
<wgt id='1805'> +8.8688101e+01 </wgt>
<wgt id='1806'> +8.8576927e+01 </wgt>
<wgt id='1807'> +8.9230187e+01 </wgt>
<wgt id='1808'> +8.8622486e+01 </wgt>
<wgt id='1809'> +8.9187353e+01 </wgt>
<wgt id='1810'> +8.8986161e+01 </wgt>
<wgt id='1811'> +8.9657869e+01 </wgt>
<wgt id='1812'> +8.8033659e+01 </wgt>
<wgt id='1813'> +8.9709379e+01 </wgt>
<wgt id='1814'> +8.8395066e+01 </wgt>
<wgt id='1815'> +8.9474314e+01 </wgt>
<wgt id='1816'> +8.7958845e+01 </wgt>
<wgt id='1817'> +8.8851128e+01 </wgt>
<wgt id='1818'> +8.9379207e+01 </wgt>
<wgt id='1819'> +8.7379876e+01 </wgt>
<wgt id='1820'> +8.9722028e+01 </wgt>
<wgt id='1821'> +8.7642849e+01 </wgt>
<wgt id='1822'> +9.0564844e+01 </wgt>
<wgt id='1823'> +8.7914461e+01 </wgt>
<wgt id='1824'> +7.8514804e+01 </wgt>
<wgt id='1825'> +7.8496077e+01 </wgt>
<wgt id='1826'> +7.8477184e+01 </wgt>
<wgt id='1827'> +7.8458330e+01 </wgt>
<wgt id='1828'> +7.8439451e+01 </wgt>
<wgt id='1829'> +7.8420110e+01 </wgt>
<wgt id='1830'> +7.8401266e+01 </wgt>
<wgt id='1831'> +7.8382515e+01 </wgt>
<wgt id='1832'> +7.8363632e+01 </wgt>
<wgt id='1833'> +7.8344815e+01 </wgt>
<wgt id='1834'> +7.8325467e+01 </wgt>
<wgt id='1835'> +7.8306649e+01 </wgt>
<wgt id='1836'> +7.8287817e+01 </wgt>
<wgt id='1837'> +7.8269071e+01 </wgt>
<wgt id='1838'> +7.8250250e+01 </wgt>
<wgt id='1839'> +7.8230878e+01 </wgt>
<wgt id='1840'> +7.8212101e+01 </wgt>
<wgt id='1841'> +7.8193199e+01 </wgt>
<wgt id='1842'> +7.8174474e+01 </wgt>
<wgt id='1843'> +7.8155726e+01 </wgt>
<wgt id='1844'> +7.8136947e+01 </wgt>
<wgt id='1845'> +7.8117566e+01 </wgt>
<wgt id='1846'> +7.8098788e+01 </wgt>
<wgt id='1847'> +7.8079990e+01 </wgt>
<wgt id='1848'> +7.8061135e+01 </wgt>
<wgt id='1849'> +7.8042413e+01 </wgt>
<wgt id='1850'> +7.8023123e+01 </wgt>
<wgt id='1851'> +7.8004348e+01 </wgt>
<wgt id='1852'> +7.7985439e+01 </wgt>
<wgt id='1853'> +7.7966662e+01 </wgt>
<wgt id='1854'> +7.7947819e+01 </wgt>
<wgt id='1855'> +7.9982068e+01 </wgt>
<wgt id='1856'> +8.0233861e+01 </wgt>
<wgt id='1857'> +7.9484810e+01 </wgt>
<wgt id='1858'> +8.0534451e+01 </wgt>
<wgt id='1859'> +8.0709685e+01 </wgt>
<wgt id='1860'> +8.0568476e+01 </wgt>
<wgt id='1861'> +8.0525717e+01 </wgt>
<wgt id='1862'> +8.0253117e+01 </wgt>
<wgt id='1863'> +8.0163131e+01 </wgt>
<wgt id='1864'> +8.0283213e+01 </wgt>
<wgt id='1865'> +8.0168027e+01 </wgt>
<wgt id='1866'> +8.0454496e+01 </wgt>
<wgt id='1867'> +7.9612633e+01 </wgt>
<wgt id='1868'> +8.0261460e+01 </wgt>
<wgt id='1869'> +7.9369901e+01 </wgt>
<wgt id='1870'> +7.9540220e+01 </wgt>
<wgt id='1871'> +7.9846457e+01 </wgt>
<wgt id='1872'> +8.0211882e+01 </wgt>
<wgt id='1873'> +8.0123191e+01 </wgt>
<wgt id='1874'> +7.9027807e+01 </wgt>
<wgt id='1875'> +8.0248460e+01 </wgt>
<wgt id='1876'> +8.0266578e+01 </wgt>
<wgt id='1877'> +7.9858436e+01 </wgt>
<wgt id='1878'> +8.0327695e+01 </wgt>
<wgt id='1879'> +8.0415109e+01 </wgt>
<wgt id='1880'> +8.0042020e+01 </wgt>
<wgt id='1881'> +7.9836615e+01 </wgt>
<wgt id='1882'> +8.0059198e+01 </wgt>
<wgt id='1883'> +8.0163382e+01 </wgt>
<wgt id='1884'> +8.0055305e+01 </wgt>
<wgt id='1885'> +8.0138649e+01 </wgt>
<wgt id='1886'> +8.0353492e+01 </wgt>
<wgt id='1887'> +8.0268937e+01 </wgt>
<wgt id='1888'> +8.0330377e+01 </wgt>
<wgt id='1889'> +8.0275537e+01 </wgt>
<wgt id='1890'> +7.9830580e+01 </wgt>
<wgt id='1891'> +8.0130531e+01 </wgt>
<wgt id='1892'> +7.9923968e+01 </wgt>
<wgt id='1893'> +8.0054863e+01 </wgt>
<wgt id='1894'> +7.9943390e+01 </wgt>
<wgt id='1895'> +7.9936970e+01 </wgt>
<wgt id='1896'> +8.0010413e+01 </wgt>
<wgt id='1897'> +8.0079226e+01 </wgt>
<wgt id='1898'> +7.9784408e+01 </wgt>
<wgt id='1899'> +8.0070250e+01 </wgt>
<wgt id='1900'> +7.9848482e+01 </wgt>
<wgt id='1901'> +8.0047632e+01 </wgt>
<wgt id='1902'> +7.9995523e+01 </wgt>
<wgt id='1903'> +8.0169000e+01 </wgt>
<wgt id='1904'> +7.9892095e+01 </wgt>
<wgt id='1905'> +8.0051948e+01 </wgt>
<wgt id='1906'> +7.9990025e+01 </wgt>
<wgt id='1907'> +7.9887341e+01 </wgt>
<wgt id='1908'> +8.0021276e+01 </wgt>
<wgt id='1909'> +7.9939341e+01 </wgt>
<wgt id='1910'> +8.0031047e+01 </wgt>
<wgt id='1911'> +7.9999942e+01 </wgt>
<wgt id='1912'> +7.9932203e+01 </wgt>
<wgt id='1913'> +7.9922361e+01 </wgt>
<wgt id='1914'> +7.9976951e+01 </wgt>
<wgt id='1915'> +7.9925118e+01 </wgt>
<wgt id='1916'> +8.0015117e+01 </wgt>
<wgt id='1917'> +7.9982391e+01 </wgt>
<wgt id='1918'> +8.0026607e+01 </wgt>
<wgt id='1919'> +7.9873066e+01 </wgt>
<wgt id='1920'> +8.0018111e+01 </wgt>
<wgt id='1921'> +8.0007887e+01 </wgt>
<wgt id='1922'> +8.0012943e+01 </wgt>
<wgt id='1923'> +8.0021518e+01 </wgt>
<wgt id='1924'> +8.0014522e+01 </wgt>
<wgt id='1925'> +7.9987431e+01 </wgt>
<wgt id='1926'> +8.0020647e+01 </wgt>
<wgt id='1927'> +8.0018877e+01 </wgt>
<wgt id='1928'> +7.9977740e+01 </wgt>
<wgt id='1929'> +7.9971863e+01 </wgt>
<wgt id='1930'> +7.9955243e+01 </wgt>
<wgt id='1931'> +7.9937260e+01 </wgt>
<wgt id='1932'> +8.0019905e+01 </wgt>
<wgt id='1933'> +7.9959402e+01 </wgt>
<wgt id='1934'> +8.0000262e+01 </wgt>
<wgt id='1935'> +8.0022542e+01 </wgt>
<wgt id='1936'> +7.9989724e+01 </wgt>
<wgt id='1937'> +8.0004275e+01 </wgt>
<wgt id='1938'> +7.9994234e+01 </wgt>
<wgt id='1939'> +7.9985313e+01 </wgt>
<wgt id='1940'> +7.9965151e+01 </wgt>
<wgt id='1941'> +8.0012495e+01 </wgt>
<wgt id='1942'> +7.9935269e+01 </wgt>
<wgt id='1943'> +7.9978158e+01 </wgt>
<wgt id='1944'> +7.9974275e+01 </wgt>
<wgt id='1945'> +8.0023256e+01 </wgt>
<wgt id='1946'> +7.9947484e+01 </wgt>
<wgt id='1947'> +7.9983771e+01 </wgt>
<wgt id='1948'> +7.9966410e+01 </wgt>
<wgt id='1949'> +7.9994312e+01 </wgt>
<wgt id='1950'> +7.9972164e+01 </wgt>
<wgt id='1951'> +7.9957087e+01 </wgt>
<wgt id='1952'> +7.9989498e+01 </wgt>
<wgt id='1953'> +7.9990212e+01 </wgt>
<wgt id='1954'> +7.9987272e+01 </wgt>
<wgt id='1955'> +7.9979624e+01 </wgt>
<wgt id='1956'> +7.9981825e+01 </wgt>
<wgt id='1957'> +7.9983336e+01 </wgt>
<wgt id='1958'> +7.9982299e+01 </wgt>
<wgt id='1959'> +7.9982355e+01 </wgt>
<wgt id='1960'> +7.9982781e+01 </wgt>
<wgt id='1961'> +7.9982165e+01 </wgt>
<wgt id='1962'> +7.9983493e+01 </wgt>
</rwgt>
</event>
<event npLO=" -1 " npNLO=" 1 ">
 7      1 +1.5146096e+02 1.99354270e+01 7.54677110e-03 1.54115210e-01
        1 -1    0    0  502    0 +0.0000000000e+00 +0.0000000000e+00 +5.1382538000e+02 5.1382538000e+02 0.0000000000e+00 0.0000e+00 9.0000e+00
       21 -1    0    0  501  502 +0.0000000000e+00 +0.0000000000e+00 -3.6458463000e+01 3.6458463000e+01 0.0000000000e+00 0.0000e+00 9.0000e+00
       23  2    1    2    0    0 +2.2132101000e+01 -4.1231437000e+01 +4.3709145000e+02 4.4728759000e+02 8.2628017000e+01 0.0000e+00 0.0000e+00
       11  1    3    3    0    0 +2.3453760000e-01 +2.3521741000e+01 +6.8901980000e+01 7.2806663000e+01 0.0000000000e+00 0.0000e+00 9.0000e+00
      -11  1    3    3    0    0 +2.1897563000e+01 -6.4753178000e+01 +3.6818947000e+02 3.7448093000e+02 0.0000000000e+00 0.0000e+00 9.0000e+00
       22  1    1    2    0    0 -1.6671069000e+01 +6.0404293000e+01 +5.0603886000e+01 8.0544127000e+01 0.0000000000e+00 0.0000e+00 9.0000e+00
        1  1    1    2  501    0 -5.4610321000e+00 -1.9172856000e+01 -1.0328428000e+01 2.2452120000e+01 0.0000000000e+00 0.0000e+00 9.0000e+00
#aMCatNLO 1  0  0  6  2 0.11810771E+01 0.00000000E+00 -9  7  0 0.00000000E+00 0.00000000E+00 0.00000000E+00 0.00000000E+00 0.00000000E+00
<rwgt>
<wgt id='1001'> +1.5146000e+02 </wgt>
<wgt id='1002'> +1.5146000e+02 </wgt>
<wgt id='1003'> +1.4603000e+02 </wgt>
<wgt id='1004'> +1.5237000e+02 </wgt>
<wgt id='1005'> +1.4992000e+02 </wgt>
<wgt id='1006'> +1.5471000e+02 </wgt>
<wgt id='1007'> +1.4070000e+02 </wgt>
<wgt id='1008'> +1.5161000e+02 </wgt>
<wgt id='1009'> +1.5546000e+02 </wgt>
<wgt id='1010'> +1.5091000e+02 </wgt>
<wgt id='1011'> +1.5061000e+02 </wgt>
<wgt id='1012'> +1.5255000e+02 </wgt>
<wgt id='1013'> +1.5796000e+02 </wgt>
<wgt id='1014'> +1.4945000e+02 </wgt>
<wgt id='1015'> +1.5378000e+02 </wgt>
<wgt id='1016'> +1.4907000e+02 </wgt>
<wgt id='1017'> +1.5194000e+02 </wgt>
<wgt id='1018'> +1.4887000e+02 </wgt>
<wgt id='1019'> +1.4592000e+02 </wgt>
<wgt id='1020'> +1.4110000e+02 </wgt>
<wgt id='1021'> +1.5240000e+02 </wgt>
<wgt id='1022'> +1.5278000e+02 </wgt>
<wgt id='1023'> +1.5704000e+02 </wgt>
<wgt id='1024'> +1.5550000e+02 </wgt>
<wgt id='1025'> +1.5763000e+02 </wgt>
<wgt id='1026'> +1.4962000e+02 </wgt>
<wgt id='1027'> +1.5017000e+02 </wgt>
<wgt id='1028'> +1.4929000e+02 </wgt>
<wgt id='1029'> +1.4578000e+02 </wgt>
<wgt id='1030'> +1.4921000e+02 </wgt>
<wgt id='1031'> +1.5028000e+02 </wgt>
<wgt id='1032'> +1.5111000e+02 </wgt>
<wgt id='1033'> +1.5066000e+02 </wgt>
<wgt id='1034'> +1.5606000e+02 </wgt>
<wgt id='1035'> +1.5672000e+02 </wgt>
<wgt id='1036'> +1.5115000e+02 </wgt>
<wgt id='1037'> +1.5426000e+02 </wgt>
<wgt id='1038'> +1.4845000e+02 </wgt>
<wgt id='1039'> +1.4749000e+02 </wgt>
<wgt id='1040'> +1.5227000e+02 </wgt>
<wgt id='1041'> +1.4822000e+02 </wgt>
<wgt id='1042'> +1.5322000e+02 </wgt>
<wgt id='1043'> +1.5586000e+02 </wgt>
<wgt id='1044'> +1.5413000e+02 </wgt>
<wgt id='1045'> +1.5376000e+02 </wgt>
<wgt id='1046'> +1.5116000e+02 </wgt>
<wgt id='1047'> +1.5574000e+02 </wgt>
<wgt id='1048'> +1.5085000e+02 </wgt>
<wgt id='1049'> +1.5007000e+02 </wgt>
<wgt id='1050'> +1.4939000e+02 </wgt>
<wgt id='1051'> +1.4914000e+02 </wgt>
<wgt id='1052'> +1.5306000e+02 </wgt>
<wgt id='1053'> +1.5372000e+02 </wgt>
<wgt id='1054'> +1.5319000e+02 </wgt>
<wgt id='1055'> +1.4957000e+02 </wgt>
<wgt id='1056'> +1.5434000e+02 </wgt>
<wgt id='1057'> +1.5316000e+02 </wgt>
<wgt id='1058'> +1.4500000e+02 </wgt>
<wgt id='1059'> +1.5027000e+02 </wgt>
<wgt id='1060'> +1.5288000e+02 </wgt>
<wgt id='1061'> +1.4836000e+02 </wgt>
<wgt id='1062'> +1.5366000e+02 </wgt>
<wgt id='1063'> +1.5170000e+02 </wgt>
<wgt id='1064'> +1.5086000e+02 </wgt>
<wgt id='1065'> +1.4895000e+02 </wgt>
<wgt id='1066'> +1.4274000e+02 </wgt>
<wgt id='1067'> +1.5303000e+02 </wgt>
<wgt id='1068'> +1.4994000e+02 </wgt>
<wgt id='1069'> +1.6575000e+02 </wgt>
<wgt id='1070'> +1.5118000e+02 </wgt>
<wgt id='1071'> +1.4962000e+02 </wgt>
<wgt id='1072'> +1.5303000e+02 </wgt>
<wgt id='1073'> +1.5532000e+02 </wgt>
<wgt id='1074'> +1.4941000e+02 </wgt>
<wgt id='1075'> +1.5330000e+02 </wgt>
<wgt id='1076'> +1.5208000e+02 </wgt>
<wgt id='1077'> +1.5092000e+02 </wgt>
<wgt id='1078'> +1.5379000e+02 </wgt>
<wgt id='1079'> +1.5261000e+02 </wgt>
<wgt id='1080'> +1.5680000e+02 </wgt>
<wgt id='1081'> +1.5321000e+02 </wgt>
<wgt id='1082'> +1.5261000e+02 </wgt>
<wgt id='1083'> +1.5445000e+02 </wgt>
<wgt id='1084'> +1.5294000e+02 </wgt>
<wgt id='1085'> +1.5014000e+02 </wgt>
<wgt id='1086'> +1.5053000e+02 </wgt>
<wgt id='1087'> +1.5065000e+02 </wgt>
<wgt id='1088'> +1.5028000e+02 </wgt>
<wgt id='1089'> +1.5543000e+02 </wgt>
<wgt id='1090'> +1.5388000e+02 </wgt>
<wgt id='1091'> +1.4867000e+02 </wgt>
<wgt id='1092'> +1.5131000e+02 </wgt>
<wgt id='1093'> +1.4910000e+02 </wgt>
<wgt id='1094'> +1.5399000e+02 </wgt>
<wgt id='1095'> +1.4834000e+02 </wgt>
<wgt id='1096'> +1.5541000e+02 </wgt>
<wgt id='1097'> +1.4386000e+02 </wgt>
<wgt id='1098'> +1.5282000e+02 </wgt>
<wgt id='1099'> +1.4733000e+02 </wgt>
<wgt id='1100'> +1.5492000e+02 </wgt>
<wgt id='1101'> +1.5210000e+02 </wgt>
<wgt id='1102'> +1.4356000e+02 </wgt>
<wgt id='1103'> +1.4912000e+02 </wgt>
<wgt id='1104'> +1.5380000e+02 </wgt>
<wgt id='1105'> +1.5146096e+02 </wgt>
<wgt id='1106'> +6.1736382e+01 </wgt>
<wgt id='1107'> +9.7052159e+01 </wgt>
<wgt id='1108'> +7.9117847e+01 </wgt>
<wgt id='1109'> +6.4486881e+01 </wgt>
<wgt id='1110'> +1.0140999e+02 </wgt>
<wgt id='1111'> +7.0861030e+01 </wgt>
<wgt id='1112'> +5.7779195e+01 </wgt>
<wgt id='1113'> +9.0792611e+01 </wgt>
<wgt id='1114'> +7.8421281e+01 </wgt>
<wgt id='1115'> +7.8985183e+01 </wgt>
<wgt id='1116'> +7.9439123e+01 </wgt>
<wgt id='1117'> +7.6567094e+01 </wgt>
<wgt id='1118'> +7.7598161e+01 </wgt>
<wgt id='1119'> +8.0472732e+01 </wgt>
<wgt id='1120'> +7.7695966e+01 </wgt>
<wgt id='1121'> +8.0072657e+01 </wgt>
<wgt id='1122'> +7.8774711e+01 </wgt>
<wgt id='1123'> +7.9703972e+01 </wgt>
<wgt id='1124'> +7.4645990e+01 </wgt>
<wgt id='1125'> +7.7240979e+01 </wgt>
<wgt id='1126'> +7.7215883e+01 </wgt>
<wgt id='1127'> +7.7364765e+01 </wgt>
<wgt id='1128'> +7.7272514e+01 </wgt>
<wgt id='1129'> +8.0213916e+01 </wgt>
<wgt id='1130'> +7.8543783e+01 </wgt>
<wgt id='1131'> +7.9613967e+01 </wgt>
<wgt id='1132'> +7.9843766e+01 </wgt>
<wgt id='1133'> +7.9418117e+01 </wgt>
<wgt id='1134'> +7.9021320e+01 </wgt>
<wgt id='1135'> +7.9073324e+01 </wgt>
<wgt id='1136'> +8.0479600e+01 </wgt>
<wgt id='1137'> +8.0284994e+01 </wgt>
<wgt id='1138'> +7.8080717e+01 </wgt>
<wgt id='1139'> +7.9515182e+01 </wgt>
<wgt id='1140'> +7.9075857e+01 </wgt>
<wgt id='1141'> +7.7223115e+01 </wgt>
<wgt id='1142'> +7.8955908e+01 </wgt>
<wgt id='1143'> +7.7761811e+01 </wgt>
<wgt id='1144'> +7.9389756e+01 </wgt>
<wgt id='1145'> +7.8549908e+01 </wgt>
<wgt id='1146'> +7.7925000e+01 </wgt>
<wgt id='1147'> +7.9526243e+01 </wgt>
<wgt id='1148'> +7.6641677e+01 </wgt>
<wgt id='1149'> +7.8421805e+01 </wgt>
<wgt id='1150'> +7.8373485e+01 </wgt>
<wgt id='1151'> +8.0247698e+01 </wgt>
<wgt id='1152'> +7.8150108e+01 </wgt>
<wgt id='1153'> +7.7346856e+01 </wgt>
<wgt id='1154'> +7.6142746e+01 </wgt>
<wgt id='1155'> +7.9566199e+01 </wgt>
<wgt id='1156'> +7.7696768e+01 </wgt>
<wgt id='1157'> +7.8786807e+01 </wgt>
<wgt id='1158'> +7.7623698e+01 </wgt>
<wgt id='1159'> +7.9255571e+01 </wgt>
<wgt id='1160'> +7.7047250e+01 </wgt>
<wgt id='1161'> +7.7069936e+01 </wgt>
<wgt id='1162'> +7.8562102e+01 </wgt>
<wgt id='1163'> +7.9756052e+01 </wgt>
<wgt id='1164'> +7.8156551e+01 </wgt>
<wgt id='1165'> +7.7760056e+01 </wgt>
<wgt id='1166'> +8.0032110e+01 </wgt>
<wgt id='1167'> +7.8125597e+01 </wgt>
<wgt id='1168'> +7.8808006e+01 </wgt>
<wgt id='1169'> +7.8214781e+01 </wgt>
<wgt id='1170'> +7.9276057e+01 </wgt>
<wgt id='1171'> +8.0224003e+01 </wgt>
<wgt id='1172'> +8.1073148e+01 </wgt>
<wgt id='1173'> +8.0205467e+01 </wgt>
<wgt id='1174'> +8.0135087e+01 </wgt>
<wgt id='1175'> +7.6861935e+01 </wgt>
<wgt id='1176'> +7.8431078e+01 </wgt>
<wgt id='1177'> +7.8392199e+01 </wgt>
<wgt id='1178'> +7.6881879e+01 </wgt>
<wgt id='1179'> +7.9471127e+01 </wgt>
<wgt id='1180'> +7.9221542e+01 </wgt>
<wgt id='1181'> +7.6478403e+01 </wgt>
<wgt id='1182'> +7.8993160e+01 </wgt>
<wgt id='1183'> +7.7353586e+01 </wgt>
<wgt id='1184'> +7.6933297e+01 </wgt>
<wgt id='1185'> +8.0650873e+01 </wgt>
<wgt id='1186'> +7.9687330e+01 </wgt>
<wgt id='1187'> +7.7770810e+01 </wgt>
<wgt id='1188'> +7.6613176e+01 </wgt>
<wgt id='1189'> +7.7703403e+01 </wgt>
<wgt id='1190'> +7.8304620e+01 </wgt>
<wgt id='1191'> +7.6709693e+01 </wgt>
<wgt id='1192'> +7.9905779e+01 </wgt>
<wgt id='1193'> +7.8335115e+01 </wgt>
<wgt id='1194'> +7.5571566e+01 </wgt>
<wgt id='1195'> +7.8001939e+01 </wgt>
<wgt id='1196'> +7.8543783e+01 </wgt>
<wgt id='1197'> +7.3211412e+01 </wgt>
<wgt id='1198'> +7.8858733e+01 </wgt>
<wgt id='1199'> +7.8573991e+01 </wgt>
<wgt id='1200'> +7.9784976e+01 </wgt>
<wgt id='1201'> +7.9065001e+01 </wgt>
<wgt id='1202'> +7.7303205e+01 </wgt>
<wgt id='1203'> +7.1729993e+01 </wgt>
<wgt id='1204'> +7.7730074e+01 </wgt>
<wgt id='1205'> +8.0173403e+01 </wgt>
<wgt id='1206'> +7.8680816e+01 </wgt>
<wgt id='1207'> +7.9473777e+01 </wgt>
<wgt id='1208'> +7.9196076e+01 </wgt>
<wgt id='1209'> +7.8919782e+01 </wgt>
<wgt id='1210'> +7.9896898e+01 </wgt>
<wgt id='1211'> +7.6873573e+01 </wgt>
<wgt id='1212'> +7.8096672e+01 </wgt>
<wgt id='1213'> +7.7566064e+01 </wgt>
<wgt id='1214'> +8.1544455e+01 </wgt>
<wgt id='1215'> +7.6662656e+01 </wgt>
<wgt id='1216'> +7.8297497e+01 </wgt>
<wgt id='1217'> +7.8439420e+01 </wgt>
<wgt id='1218'> +7.8083411e+01 </wgt>
<wgt id='1219'> +7.8528292e+01 </wgt>
<wgt id='1220'> +7.8293454e+01 </wgt>
<wgt id='1221'> +7.8582992e+01 </wgt>
<wgt id='1222'> +7.8337366e+01 </wgt>
<wgt id='1223'> +7.8491362e+01 </wgt>
<wgt id='1224'> +7.8443249e+01 </wgt>
<wgt id='1225'> +7.8328766e+01 </wgt>
<wgt id='1226'> +7.8203796e+01 </wgt>
<wgt id='1227'> +7.8341287e+01 </wgt>
<wgt id='1228'> +7.8478069e+01 </wgt>
<wgt id='1229'> +7.8095855e+01 </wgt>
<wgt id='1230'> +7.8396678e+01 </wgt>
<wgt id='1231'> +7.8481353e+01 </wgt>
<wgt id='1232'> +7.8474787e+01 </wgt>
<wgt id='1233'> +7.8344995e+01 </wgt>
<wgt id='1234'> +7.8304211e+01 </wgt>
<wgt id='1235'> +7.8170013e+01 </wgt>
<wgt id='1236'> +7.8214101e+01 </wgt>
<wgt id='1237'> +7.8504233e+01 </wgt>
<wgt id='1238'> +7.8287181e+01 </wgt>
<wgt id='1239'> +7.8282017e+01 </wgt>
<wgt id='1240'> +7.8656778e+01 </wgt>
<wgt id='1241'> +7.8156888e+01 </wgt>
<wgt id='1242'> +7.8343460e+01 </wgt>
<wgt id='1243'> +7.8006328e+01 </wgt>
<wgt id='1244'> +7.8532610e+01 </wgt>
<wgt id='1245'> +7.8673094e+01 </wgt>
<wgt id='1246'> +7.7497819e+01 </wgt>
<wgt id='1247'> +7.7905411e+01 </wgt>
<wgt id='1248'> +7.8597056e+01 </wgt>
<wgt id='1249'> +7.8281418e+01 </wgt>
<wgt id='1250'> +7.8162993e+01 </wgt>
<wgt id='1251'> +7.8475062e+01 </wgt>
<wgt id='1252'> +7.8329681e+01 </wgt>
<wgt id='1253'> +7.8056044e+01 </wgt>
<wgt id='1254'> +7.8324755e+01 </wgt>
<wgt id='1255'> +7.8343697e+01 </wgt>
<wgt id='1256'> +7.8222458e+01 </wgt>
<wgt id='1257'> +7.8552727e+01 </wgt>
<wgt id='1258'> +7.8203306e+01 </wgt>
<wgt id='1259'> +7.8246422e+01 </wgt>
<wgt id='1260'> +7.8342638e+01 </wgt>
<wgt id='1261'> +7.8268577e+01 </wgt>
<wgt id='1262'> +7.8377539e+01 </wgt>
<wgt id='1263'> +7.8434572e+01 </wgt>
<wgt id='1264'> +7.8360412e+01 </wgt>
<wgt id='1265'> +7.8102911e+01 </wgt>
<wgt id='1266'> +7.8339056e+01 </wgt>
<wgt id='1267'> +7.8524930e+01 </wgt>
<wgt id='1268'> +7.8346316e+01 </wgt>
<wgt id='1269'> +7.8174467e+01 </wgt>
<wgt id='1270'> +7.8173916e+01 </wgt>
<wgt id='1271'> +7.8305182e+01 </wgt>
<wgt id='1272'> +7.7942367e+01 </wgt>
<wgt id='1273'> +7.8359626e+01 </wgt>
<wgt id='1274'> +7.8203934e+01 </wgt>
<wgt id='1275'> +7.8419694e+01 </wgt>
<wgt id='1276'> +7.8259810e+01 </wgt>
<wgt id='1277'> +7.8315002e+01 </wgt>
<wgt id='1278'> +7.8226011e+01 </wgt>
<wgt id='1279'> +7.8346083e+01 </wgt>
<wgt id='1280'> +7.8196859e+01 </wgt>
<wgt id='1281'> +7.8304139e+01 </wgt>
<wgt id='1282'> +7.8471116e+01 </wgt>
<wgt id='1283'> +7.8203913e+01 </wgt>
<wgt id='1284'> +7.8353933e+01 </wgt>
<wgt id='1285'> +7.8311630e+01 </wgt>
<wgt id='1286'> +7.8242748e+01 </wgt>
<wgt id='1287'> +7.8288726e+01 </wgt>
<wgt id='1288'> +7.8243834e+01 </wgt>
<wgt id='1289'> +7.8237966e+01 </wgt>
<wgt id='1290'> +7.8339185e+01 </wgt>
<wgt id='1291'> +7.8412155e+01 </wgt>
<wgt id='1292'> +7.8369212e+01 </wgt>
<wgt id='1293'> +7.8245878e+01 </wgt>
<wgt id='1294'> +7.8290351e+01 </wgt>
<wgt id='1295'> +7.8298309e+01 </wgt>
<wgt id='1296'> +7.8322085e+01 </wgt>
<wgt id='1297'> +7.8173840e+01 </wgt>
<wgt id='1298'> +7.8250637e+01 </wgt>
<wgt id='1299'> +7.8217779e+01 </wgt>
<wgt id='1300'> +7.8390527e+01 </wgt>
<wgt id='1301'> +7.8231200e+01 </wgt>
<wgt id='1302'> +7.8281856e+01 </wgt>
<wgt id='1303'> +7.8280491e+01 </wgt>
<wgt id='1304'> +7.8276417e+01 </wgt>
<wgt id='1305'> +7.8290033e+01 </wgt>
<wgt id='1306'> +7.8327709e+01 </wgt>
<wgt id='1307'> +7.8329044e+01 </wgt>
<wgt id='1308'> +7.8279032e+01 </wgt>
<wgt id='1309'> +7.8292292e+01 </wgt>
<wgt id='1310'> +7.8280279e+01 </wgt>
<wgt id='1311'> +7.8321659e+01 </wgt>
<wgt id='1312'> +7.8309180e+01 </wgt>
<wgt id='1313'> +7.8212111e+01 </wgt>
<wgt id='1314'> +7.8261573e+01 </wgt>
<wgt id='1315'> +7.8339744e+01 </wgt>
<wgt id='1316'> +7.8355253e+01 </wgt>
<wgt id='1317'> +7.5873223e+01 </wgt>
<wgt id='1318'> +8.0949547e+01 </wgt>
<wgt id='1319'> +8.3807850e+01 </wgt>
<wgt id='1320'> +7.8188500e+01 </wgt>
<wgt id='1321'> +7.9733396e+01 </wgt>
<wgt id='1322'> +7.8340796e+01 </wgt>
<wgt id='1323'> +7.8803174e+01 </wgt>
<wgt id='1324'> +7.8011736e+01 </wgt>
<wgt id='1325'> +7.8721815e+01 </wgt>
<wgt id='1326'> +7.7974139e+01 </wgt>
<wgt id='1327'> +7.8746897e+01 </wgt>
<wgt id='1328'> +7.7542737e+01 </wgt>
<wgt id='1329'> +7.7327204e+01 </wgt>
<wgt id='1330'> +7.8472282e+01 </wgt>
<wgt id='1331'> +7.8281862e+01 </wgt>
<wgt id='1332'> +7.8323438e+01 </wgt>
<wgt id='1333'> +7.5720166e+01 </wgt>
<wgt id='1334'> +7.9508502e+01 </wgt>
<wgt id='1335'> +7.8605391e+01 </wgt>
<wgt id='1336'> +7.7299112e+01 </wgt>
<wgt id='1337'> +7.9166113e+01 </wgt>
<wgt id='1338'> +7.7033441e+01 </wgt>
<wgt id='1339'> +7.8906483e+01 </wgt>
<wgt id='1340'> +7.7416481e+01 </wgt>
<wgt id='1341'> +7.8218498e+01 </wgt>
<wgt id='1342'> +7.8113240e+01 </wgt>
<wgt id='1343'> +7.8027805e+01 </wgt>
<wgt id='1344'> +7.8598689e+01 </wgt>
<wgt id='1345'> +7.7040302e+01 </wgt>
<wgt id='1346'> +7.9230648e+01 </wgt>
<wgt id='1347'> +7.7814467e+01 </wgt>
<wgt id='1348'> +7.8799415e+01 </wgt>
<wgt id='1349'> +7.8266454e+01 </wgt>
<wgt id='1350'> +7.8163014e+01 </wgt>
<wgt id='1351'> +7.8334728e+01 </wgt>
<wgt id='1352'> +7.7997468e+01 </wgt>
<wgt id='1353'> +7.7986928e+01 </wgt>
<wgt id='1354'> +7.8658405e+01 </wgt>
<wgt id='1355'> +8.0258311e+01 </wgt>
<wgt id='1356'> +7.6295313e+01 </wgt>
<wgt id='1357'> +7.8492943e+01 </wgt>
<wgt id='1358'> +7.7481272e+01 </wgt>
<wgt id='1359'> +7.7251256e+01 </wgt>
<wgt id='1360'> +7.8551444e+01 </wgt>
<wgt id='1361'> +7.9404151e+01 </wgt>
<wgt id='1362'> +7.7661198e+01 </wgt>
<wgt id='1363'> +7.7713454e+01 </wgt>
<wgt id='1364'> +7.8019936e+01 </wgt>
<wgt id='1365'> +7.8107458e+01 </wgt>
<wgt id='1366'> +7.7400286e+01 </wgt>
<wgt id='1367'> +7.7625640e+01 </wgt>
<wgt id='1368'> +7.9062116e+01 </wgt>
<wgt id='1369'> +7.8214629e+01 </wgt>
<wgt id='1370'> +7.7849892e+01 </wgt>
<wgt id='1371'> +7.7666141e+01 </wgt>
<wgt id='1372'> +7.7585734e+01 </wgt>
<wgt id='1373'> +7.6686677e+01 </wgt>
<wgt id='1374'> +7.8008434e+01 </wgt>
<wgt id='1375'> +7.8148730e+01 </wgt>
<wgt id='1376'> +7.8327793e+01 </wgt>
<wgt id='1377'> +7.5638457e+01 </wgt>
<wgt id='1378'> +8.0599250e+01 </wgt>
<wgt id='1379'> +7.6812144e+01 </wgt>
<wgt id='1380'> +7.4518340e+01 </wgt>
<wgt id='1381'> +7.8987194e+01 </wgt>
<wgt id='1382'> +7.4922497e+01 </wgt>
<wgt id='1383'> +7.6234450e+01 </wgt>
<wgt id='1384'> +7.7201186e+01 </wgt>
<wgt id='1385'> +1.0109989e+02 </wgt>
<wgt id='1386'> +1.0135732e+02 </wgt>
<wgt id='1387'> +1.0081097e+02 </wgt>
<wgt id='1388'> +1.0104485e+02 </wgt>
<wgt id='1389'> +1.0117936e+02 </wgt>
<wgt id='1390'> +1.0111793e+02 </wgt>
<wgt id='1391'> +1.0107286e+02 </wgt>
<wgt id='1392'> +1.0113864e+02 </wgt>
<wgt id='1393'> +1.0107655e+02 </wgt>
<wgt id='1394'> +1.0045009e+02 </wgt>
<wgt id='1395'> +1.0189933e+02 </wgt>
<wgt id='1396'> +1.0166276e+02 </wgt>
<wgt id='1397'> +1.0080352e+02 </wgt>
<wgt id='1398'> +9.9679718e+01 </wgt>
<wgt id='1399'> +1.0215871e+02 </wgt>
<wgt id='1400'> +1.0083316e+02 </wgt>
<wgt id='1401'> +1.0130258e+02 </wgt>
<wgt id='1402'> +1.0089678e+02 </wgt>
<wgt id='1403'> +1.0119177e+02 </wgt>
<wgt id='1404'> +9.9301021e+01 </wgt>
<wgt id='1405'> +1.0202553e+02 </wgt>
<wgt id='1406'> +1.0112097e+02 </wgt>
<wgt id='1407'> +1.0107813e+02 </wgt>
<wgt id='1408'> +1.0082255e+02 </wgt>
<wgt id='1409'> +1.0166602e+02 </wgt>
<wgt id='1410'> +1.0128931e+02 </wgt>
<wgt id='1411'> +1.0071297e+02 </wgt>
<wgt id='1412'> +1.0187579e+02 </wgt>
<wgt id='1413'> +1.0008560e+02 </wgt>
<wgt id='1414'> +1.0082874e+02 </wgt>
<wgt id='1415'> +1.0135409e+02 </wgt>
<wgt id='1416'> +1.0054894e+02 </wgt>
<wgt id='1417'> +1.0129154e+02 </wgt>
<wgt id='1418'> +1.0076959e+02 </wgt>
<wgt id='1419'> +1.0174161e+02 </wgt>
<wgt id='1420'> +1.0181121e+02 </wgt>
<wgt id='1421'> +1.0136008e+02 </wgt>
<wgt id='1422'> +1.0177528e+02 </wgt>
<wgt id='1423'> +1.0028675e+02 </wgt>
<wgt id='1424'> +1.0118247e+02 </wgt>
<wgt id='1425'> +1.0105812e+02 </wgt>
<wgt id='1426'> +1.0157949e+02 </wgt>
<wgt id='1427'> +1.0073310e+02 </wgt>
<wgt id='1428'> +1.0157215e+02 </wgt>
<wgt id='1429'> +1.0057944e+02 </wgt>
<wgt id='1430'> +1.0110384e+02 </wgt>
<wgt id='1431'> +1.0130871e+02 </wgt>
<wgt id='1432'> +1.0112775e+02 </wgt>
<wgt id='1433'> +1.0130852e+02 </wgt>
<wgt id='1434'> +1.0092659e+02 </wgt>
<wgt id='1435'> +1.0017912e+02 </wgt>
<wgt id='1436'> +7.1027914e+01 </wgt>
<wgt id='1437'> +7.1013551e+01 </wgt>
<wgt id='1438'> +7.1074396e+01 </wgt>
<wgt id='1439'> +7.1028677e+01 </wgt>
<wgt id='1440'> +7.1013107e+01 </wgt>
<wgt id='1441'> +7.1317328e+01 </wgt>
<wgt id='1442'> +7.0768684e+01 </wgt>
<wgt id='1443'> +7.0955195e+01 </wgt>
<wgt id='1444'> +7.0955827e+01 </wgt>
<wgt id='1445'> +7.0269296e+01 </wgt>
<wgt id='1446'> +7.1440231e+01 </wgt>
<wgt id='1447'> +7.0916065e+01 </wgt>
<wgt id='1448'> +7.0981442e+01 </wgt>
<wgt id='1449'> +7.1127317e+01 </wgt>
<wgt id='1450'> +7.1105216e+01 </wgt>
<wgt id='1451'> +7.1442488e+01 </wgt>
<wgt id='1452'> +7.0867997e+01 </wgt>
<wgt id='1453'> +7.1024565e+01 </wgt>
<wgt id='1454'> +7.1170513e+01 </wgt>
<wgt id='1455'> +7.1054612e+01 </wgt>
<wgt id='1456'> +7.1023741e+01 </wgt>
<wgt id='1457'> +7.1384901e+01 </wgt>
<wgt id='1458'> +7.1407698e+01 </wgt>
<wgt id='1459'> +7.0406266e+01 </wgt>
<wgt id='1460'> +7.0957055e+01 </wgt>
<wgt id='1461'> +7.1221836e+01 </wgt>
<wgt id='1462'> +7.0296091e+01 </wgt>
<wgt id='1463'> +7.1951920e+01 </wgt>
<wgt id='1464'> +7.0943952e+01 </wgt>
<wgt id='1465'> +7.5986896e+01 </wgt>
<wgt id='1466'> +7.6677462e+01 </wgt>
<wgt id='1467'> +7.6448530e+01 </wgt>
<wgt id='1468'> +7.6668852e+01 </wgt>
<wgt id='1469'> +7.6944882e+01 </wgt>
<wgt id='1470'> +7.6638455e+01 </wgt>
<wgt id='1471'> +7.6695115e+01 </wgt>
<wgt id='1472'> +7.5981072e+01 </wgt>
<wgt id='1473'> +7.7358580e+01 </wgt>
<wgt id='1474'> +7.7775768e+01 </wgt>
<wgt id='1475'> +7.6441457e+01 </wgt>
<wgt id='1476'> +7.6779459e+01 </wgt>
<wgt id='1477'> +7.6332872e+01 </wgt>
<wgt id='1478'> +7.6170617e+01 </wgt>
<wgt id='1479'> +7.6767764e+01 </wgt>
<wgt id='1480'> +7.6571932e+01 </wgt>
<wgt id='1481'> +7.6561303e+01 </wgt>
<wgt id='1482'> +7.6330005e+01 </wgt>
<wgt id='1483'> +7.6624307e+01 </wgt>
<wgt id='1484'> +7.7318484e+01 </wgt>
<wgt id='1485'> +7.6339509e+01 </wgt>
<wgt id='1486'> +7.6675178e+01 </wgt>
<wgt id='1487'> +7.6858474e+01 </wgt>
<wgt id='1488'> +7.6709667e+01 </wgt>
<wgt id='1489'> +7.7309668e+01 </wgt>
<wgt id='1490'> +7.6416071e+01 </wgt>
<wgt id='1491'> +7.6902392e+01 </wgt>
<wgt id='1492'> +7.6452419e+01 </wgt>
<wgt id='1493'> +7.6732166e+01 </wgt>
<wgt id='1494'> +7.6729027e+01 </wgt>
<wgt id='1495'> +7.6460719e+01 </wgt>
<wgt id='1496'> +7.6376371e+01 </wgt>
<wgt id='1497'> +7.6559929e+01 </wgt>
<wgt id='1498'> +7.7081359e+01 </wgt>
<wgt id='1499'> +7.6602609e+01 </wgt>
<wgt id='1500'> +7.6353542e+01 </wgt>
<wgt id='1501'> +7.6970362e+01 </wgt>
<wgt id='1502'> +7.6529494e+01 </wgt>
<wgt id='1503'> +7.6733181e+01 </wgt>
<wgt id='1504'> +7.6414647e+01 </wgt>
<wgt id='1505'> +7.6397862e+01 </wgt>
<wgt id='1506'> +7.6697163e+01 </wgt>
<wgt id='1507'> +7.6505681e+01 </wgt>
<wgt id='1508'> +7.6927766e+01 </wgt>
<wgt id='1509'> +7.6654142e+01 </wgt>
<wgt id='1510'> +7.6634460e+01 </wgt>
<wgt id='1511'> +7.6808390e+01 </wgt>
<wgt id='1512'> +7.6644426e+01 </wgt>
<wgt id='1513'> +7.6926442e+01 </wgt>
<wgt id='1514'> +7.6564518e+01 </wgt>
<wgt id='1515'> +7.6690274e+01 </wgt>
<wgt id='1516'> +7.6763127e+01 </wgt>
<wgt id='1517'> +7.6379152e+01 </wgt>
<wgt id='1518'> +7.6691492e+01 </wgt>
<wgt id='1519'> +7.6722371e+01 </wgt>
<wgt id='1520'> +7.6503022e+01 </wgt>
<wgt id='1521'> +7.6685498e+01 </wgt>
<wgt id='1522'> +7.6648908e+01 </wgt>
<wgt id='1523'> +7.6546076e+01 </wgt>
<wgt id='1524'> +7.6842102e+01 </wgt>
<wgt id='1525'> +7.6836276e+01 </wgt>
<wgt id='1526'> +7.6523313e+01 </wgt>
<wgt id='1527'> +7.6687556e+01 </wgt>
<wgt id='1528'> +7.6558119e+01 </wgt>
<wgt id='1529'> +7.6796814e+01 </wgt>
<wgt id='1530'> +7.6678935e+01 </wgt>
<wgt id='1531'> +7.6787943e+01 </wgt>
<wgt id='1532'> +7.6642762e+01 </wgt>
<wgt id='1533'> +7.6726535e+01 </wgt>
<wgt id='1534'> +7.6697280e+01 </wgt>
<wgt id='1535'> +7.6702144e+01 </wgt>
<wgt id='1536'> +7.6667768e+01 </wgt>
<wgt id='1537'> +7.6639039e+01 </wgt>
<wgt id='1538'> +7.6692772e+01 </wgt>
<wgt id='1539'> +7.6596884e+01 </wgt>
<wgt id='1540'> +7.6625134e+01 </wgt>
<wgt id='1541'> +7.6720241e+01 </wgt>
<wgt id='1542'> +7.6693946e+01 </wgt>
<wgt id='1543'> +7.6647069e+01 </wgt>
<wgt id='1544'> +7.6650821e+01 </wgt>
<wgt id='1545'> +7.6727145e+01 </wgt>
<wgt id='1546'> +7.6673762e+01 </wgt>
<wgt id='1547'> +7.6671322e+01 </wgt>
<wgt id='1548'> +7.6587912e+01 </wgt>
<wgt id='1549'> +7.6717856e+01 </wgt>
<wgt id='1550'> +7.6666268e+01 </wgt>
<wgt id='1551'> +7.6615974e+01 </wgt>
<wgt id='1552'> +7.6695295e+01 </wgt>
<wgt id='1553'> +7.6612510e+01 </wgt>
<wgt id='1554'> +7.6695930e+01 </wgt>
<wgt id='1555'> +7.6728854e+01 </wgt>
<wgt id='1556'> +7.6684053e+01 </wgt>
<wgt id='1557'> +7.6653424e+01 </wgt>
<wgt id='1558'> +7.6664587e+01 </wgt>
<wgt id='1559'> +7.6635431e+01 </wgt>
<wgt id='1560'> +7.6678820e+01 </wgt>
<wgt id='1561'> +7.6636491e+01 </wgt>
<wgt id='1562'> +7.6653419e+01 </wgt>
<wgt id='1563'> +7.6696863e+01 </wgt>
<wgt id='1564'> +7.6684975e+01 </wgt>
<wgt id='1565'> +7.6685223e+01 </wgt>
<wgt id='1566'> +7.6667386e+01 </wgt>
<wgt id='1567'> +7.4771722e+01 </wgt>
<wgt id='1568'> +7.8410128e+01 </wgt>
<wgt id='1569'> +7.6868952e+01 </wgt>
<wgt id='1570'> +7.7011415e+01 </wgt>
<wgt id='1571'> +7.6921509e+01 </wgt>
<wgt id='1572'> +7.6598164e+01 </wgt>
<wgt id='1573'> +7.6834402e+01 </wgt>
<wgt id='1574'> +7.7145781e+01 </wgt>
<wgt id='1575'> +7.6981622e+01 </wgt>
<wgt id='1576'> +7.7097137e+01 </wgt>
<wgt id='1577'> +7.6999936e+01 </wgt>
<wgt id='1578'> +7.6707165e+01 </wgt>
<wgt id='1579'> +7.7015386e+01 </wgt>
<wgt id='1580'> +7.7347315e+01 </wgt>
<wgt id='1581'> +7.6297497e+01 </wgt>
<wgt id='1582'> +7.6625921e+01 </wgt>
<wgt id='1583'> +7.6205473e+01 </wgt>
<wgt id='1584'> +7.7333914e+01 </wgt>
<wgt id='1585'> +7.6723601e+01 </wgt>
<wgt id='1586'> +7.6909895e+01 </wgt>
<wgt id='1587'> +7.6986834e+01 </wgt>
<wgt id='1588'> +7.6418728e+01 </wgt>
<wgt id='1589'> +7.6979984e+01 </wgt>
<wgt id='1590'> +7.6975709e+01 </wgt>
<wgt id='1591'> +7.6244966e+01 </wgt>
<wgt id='1592'> +7.6937191e+01 </wgt>
<wgt id='1593'> +7.7083403e+01 </wgt>
<wgt id='1594'> +7.6651932e+01 </wgt>
<wgt id='1595'> +7.6568544e+01 </wgt>
<wgt id='1596'> +7.7076790e+01 </wgt>
<wgt id='1597'> +7.6823954e+01 </wgt>
<wgt id='1598'> +7.6485884e+01 </wgt>
<wgt id='1599'> +7.6817098e+01 </wgt>
<wgt id='1600'> +7.6838847e+01 </wgt>
<wgt id='1601'> +7.7222554e+01 </wgt>
<wgt id='1602'> +7.7010227e+01 </wgt>
<wgt id='1603'> +7.6788138e+01 </wgt>
<wgt id='1604'> +7.7023076e+01 </wgt>
<wgt id='1605'> +7.6652628e+01 </wgt>
<wgt id='1606'> +7.7298135e+01 </wgt>
<wgt id='1607'> +7.7261782e+01 </wgt>
<wgt id='1608'> +7.6718447e+01 </wgt>
<wgt id='1609'> +7.6871054e+01 </wgt>
<wgt id='1610'> +7.6485324e+01 </wgt>
<wgt id='1611'> +7.6723358e+01 </wgt>
<wgt id='1612'> +7.6986603e+01 </wgt>
<wgt id='1613'> +7.6991429e+01 </wgt>
<wgt id='1614'> +7.6827359e+01 </wgt>
<wgt id='1615'> +7.6861650e+01 </wgt>
<wgt id='1616'> +7.6659521e+01 </wgt>
<wgt id='1617'> +7.6739585e+01 </wgt>
<wgt id='1618'> +7.6737319e+01 </wgt>
<wgt id='1619'> +7.6906952e+01 </wgt>
<wgt id='1620'> +7.6905138e+01 </wgt>
<wgt id='1621'> +7.6828744e+01 </wgt>
<wgt id='1622'> +7.6736570e+01 </wgt>
<wgt id='1623'> +7.6900633e+01 </wgt>
<wgt id='1624'> +7.6695027e+01 </wgt>
<wgt id='1625'> +7.7052761e+01 </wgt>
<wgt id='1626'> +7.6955497e+01 </wgt>
<wgt id='1627'> +7.6843423e+01 </wgt>
<wgt id='1628'> +7.6891414e+01 </wgt>
<wgt id='1629'> +7.6760464e+01 </wgt>
<wgt id='1630'> +7.7045174e+01 </wgt>
<wgt id='1631'> +7.6778621e+01 </wgt>
<wgt id='1632'> +7.6931244e+01 </wgt>
<wgt id='1633'> +7.6793015e+01 </wgt>
<wgt id='1634'> +7.6733040e+01 </wgt>
<wgt id='1635'> +7.6808145e+01 </wgt>
<wgt id='1636'> +7.6846037e+01 </wgt>
<wgt id='1637'> +7.6901422e+01 </wgt>
<wgt id='1638'> +7.6830828e+01 </wgt>
<wgt id='1639'> +7.6818824e+01 </wgt>
<wgt id='1640'> +7.6967178e+01 </wgt>
<wgt id='1641'> +7.6814628e+01 </wgt>
<wgt id='1642'> +7.6849325e+01 </wgt>
<wgt id='1643'> +7.6823062e+01 </wgt>
<wgt id='1644'> +7.6908940e+01 </wgt>
<wgt id='1645'> +7.6890180e+01 </wgt>
<wgt id='1646'> +7.6889269e+01 </wgt>
<wgt id='1647'> +7.6875320e+01 </wgt>
<wgt id='1648'> +7.6856909e+01 </wgt>
<wgt id='1649'> +7.6951950e+01 </wgt>
<wgt id='1650'> +7.6810503e+01 </wgt>
<wgt id='1651'> +7.6877169e+01 </wgt>
<wgt id='1652'> +7.6810877e+01 </wgt>
<wgt id='1653'> +7.6815114e+01 </wgt>
<wgt id='1654'> +7.6894285e+01 </wgt>
<wgt id='1655'> +7.6903074e+01 </wgt>
<wgt id='1656'> +7.6792007e+01 </wgt>
<wgt id='1657'> +7.6872338e+01 </wgt>
<wgt id='1658'> +7.6833272e+01 </wgt>
<wgt id='1659'> +7.6922165e+01 </wgt>
<wgt id='1660'> +7.6839546e+01 </wgt>
<wgt id='1661'> +7.6822636e+01 </wgt>
<wgt id='1662'> +7.6884233e+01 </wgt>
<wgt id='1663'> +7.6865307e+01 </wgt>
<wgt id='1664'> +7.6868963e+01 </wgt>
<wgt id='1665'> +7.6899960e+01 </wgt>
<wgt id='1666'> +7.6885269e+01 </wgt>
<wgt id='1667'> +7.6875690e+01 </wgt>
<wgt id='1668'> +7.6851124e+01 </wgt>
<wgt id='1669'> +7.6875922e+01 </wgt>
<wgt id='1670'> +7.5091183e+01 </wgt>
<wgt id='1671'> +7.8459295e+01 </wgt>
<wgt id='1672'> +7.6751494e+01 </wgt>
<wgt id='1673'> +7.6415778e+01 </wgt>
<wgt id='1674'> +7.5918482e+01 </wgt>
<wgt id='1675'> +7.6726817e+01 </wgt>
<wgt id='1676'> +7.7566056e+01 </wgt>
<wgt id='1677'> +7.7570193e+01 </wgt>
<wgt id='1678'> +7.7457781e+01 </wgt>
<wgt id='1679'> +7.6696329e+01 </wgt>
<wgt id='1680'> +7.6723382e+01 </wgt>
<wgt id='1681'> +7.6843904e+01 </wgt>
<wgt id='1682'> +7.6735381e+01 </wgt>
<wgt id='1683'> +7.6844090e+01 </wgt>
<wgt id='1684'> +7.6909491e+01 </wgt>
<wgt id='1685'> +7.6656244e+01 </wgt>
<wgt id='1686'> +7.6515042e+01 </wgt>
<wgt id='1687'> +7.6967479e+01 </wgt>
<wgt id='1688'> +7.7053142e+01 </wgt>
<wgt id='1689'> +7.6003800e+01 </wgt>
<wgt id='1690'> +7.6669678e+01 </wgt>
<wgt id='1691'> +7.6833345e+01 </wgt>
<wgt id='1692'> +7.6908444e+01 </wgt>
<wgt id='1693'> +7.6732460e+01 </wgt>
<wgt id='1694'> +7.6558607e+01 </wgt>
<wgt id='1695'> +7.6808116e+01 </wgt>
<wgt id='1696'> +7.6615092e+01 </wgt>
<wgt id='1697'> +7.6797883e+01 </wgt>
<wgt id='1698'> +7.5643147e+01 </wgt>
<wgt id='1699'> +7.6755474e+01 </wgt>
<wgt id='1700'> +7.6680322e+01 </wgt>
<wgt id='1701'> +7.6833723e+01 </wgt>
<wgt id='1702'> +7.6735371e+01 </wgt>
<wgt id='1703'> +7.4771722e+01 </wgt>
<wgt id='1704'> +7.8410128e+01 </wgt>
<wgt id='1705'> +7.6873481e+01 </wgt>
<wgt id='1706'> +7.7356845e+01 </wgt>
<wgt id='1707'> +7.7529194e+01 </wgt>
<wgt id='1708'> +7.6807993e+01 </wgt>
<wgt id='1709'> +7.6688550e+01 </wgt>
<wgt id='1710'> +7.6130283e+01 </wgt>
<wgt id='1711'> +7.6902780e+01 </wgt>
<wgt id='1712'> +7.6847844e+01 </wgt>
<wgt id='1713'> +7.6856880e+01 </wgt>
<wgt id='1714'> +7.6402186e+01 </wgt>
<wgt id='1715'> +7.7169271e+01 </wgt>
<wgt id='1716'> +7.7033576e+01 </wgt>
<wgt id='1717'> +7.6923611e+01 </wgt>
<wgt id='1718'> +7.6867400e+01 </wgt>
<wgt id='1719'> +7.6677407e+01 </wgt>
<wgt id='1720'> +7.6451258e+01 </wgt>
<wgt id='1721'> +7.6744149e+01 </wgt>
<wgt id='1722'> +7.6831559e+01 </wgt>
<wgt id='1723'> +7.6928943e+01 </wgt>
<wgt id='1724'> +7.7163372e+01 </wgt>
<wgt id='1725'> +7.6787681e+01 </wgt>
<wgt id='1726'> +7.5867132e+01 </wgt>
<wgt id='1727'> +7.7495000e+01 </wgt>
<wgt id='1728'> +7.6808486e+01 </wgt>
<wgt id='1729'> +7.6745595e+01 </wgt>
<wgt id='1730'> +7.6700382e+01 </wgt>
<wgt id='1731'> +7.6889798e+01 </wgt>
<wgt id='1732'> +7.6880991e+01 </wgt>
<wgt id='1733'> +7.6772681e+01 </wgt>
<wgt id='1734'> +7.6799563e+01 </wgt>
<wgt id='1735'> +7.6884971e+01 </wgt>
<wgt id='1736'> +7.5091183e+01 </wgt>
<wgt id='1737'> +7.8459295e+01 </wgt>
<wgt id='1738'> +7.8239534e+01 </wgt>
<wgt id='1739'> +7.8237394e+01 </wgt>
<wgt id='1740'> +7.8241381e+01 </wgt>
<wgt id='1741'> +7.8287710e+01 </wgt>
<wgt id='1742'> +7.8190980e+01 </wgt>
<wgt id='1743'> +7.8316848e+01 </wgt>
<wgt id='1744'> +7.8162164e+01 </wgt>
<wgt id='1745'> +7.8129063e+01 </wgt>
<wgt id='1746'> +7.8349721e+01 </wgt>
<wgt id='1747'> +7.7814589e+01 </wgt>
<wgt id='1748'> +7.8629355e+01 </wgt>
<wgt id='1749'> +7.8525816e+01 </wgt>
<wgt id='1750'> +7.7945366e+01 </wgt>
<wgt id='1751'> +7.8209526e+01 </wgt>
<wgt id='1752'> +7.8269122e+01 </wgt>
<wgt id='1753'> +7.8727378e+01 </wgt>
<wgt id='1754'> +7.7714995e+01 </wgt>
<wgt id='1755'> +7.8681566e+01 </wgt>
<wgt id='1756'> +7.7739880e+01 </wgt>
<wgt id='1757'> +7.6691557e+01 </wgt>
<wgt id='1758'> +7.9731050e+01 </wgt>
<wgt id='1759'> +7.6918666e+01 </wgt>
<wgt id='1760'> +7.9472443e+01 </wgt>
<wgt id='1761'> +7.7375510e+01 </wgt>
<wgt id='1762'> +7.8810579e+01 </wgt>
<wgt id='1763'> +7.9125037e+01 </wgt>
<wgt id='1764'> +7.7403918e+01 </wgt>
<wgt id='1765'> +7.8100195e+01 </wgt>
<wgt id='1766'> +7.8424318e+01 </wgt>
<wgt id='1767'> +7.8239534e+01 </wgt>
<wgt id='1768'> +8.0247744e+01 </wgt>
<wgt id='1769'> +7.6216871e+01 </wgt>
<wgt id='1770'> +8.5516831e+01 </wgt>
<wgt id='1771'> +8.5028371e+01 </wgt>
<wgt id='1772'> +7.8917842e+01 </wgt>
<wgt id='1773'> +7.7791198e+01 </wgt>
<wgt id='1774'> +7.8105630e+01 </wgt>
<wgt id='1775'> +7.8338603e+01 </wgt>
<wgt id='1776'> +7.8057326e+01 </wgt>
<wgt id='1777'> +7.8404040e+01 </wgt>
<wgt id='1778'> +7.8024688e+01 </wgt>
<wgt id='1779'> +7.8560495e+01 </wgt>
<wgt id='1780'> +7.9151360e+01 </wgt>
<wgt id='1781'> +7.8481364e+01 </wgt>
<wgt id='1782'> +7.8468690e+01 </wgt>
<wgt id='1783'> +7.8460533e+01 </wgt>
<wgt id='1784'> +7.8496473e+01 </wgt>
<wgt id='1785'> +7.8432665e+01 </wgt>
<wgt id='1786'> +7.8573270e+01 </wgt>
<wgt id='1787'> +7.8356096e+01 </wgt>
<wgt id='1788'> +7.8441111e+01 </wgt>
<wgt id='1789'> +7.8488171e+01 </wgt>
<wgt id='1790'> +7.8502270e+01 </wgt>
<wgt id='1791'> +7.8426408e+01 </wgt>
<wgt id='1792'> +7.8124107e+01 </wgt>
<wgt id='1793'> +7.8771010e+01 </wgt>
<wgt id='1794'> +7.8423620e+01 </wgt>
<wgt id='1795'> +7.8504378e+01 </wgt>
<wgt id='1796'> +7.8410387e+01 </wgt>
<wgt id='1797'> +7.8525966e+01 </wgt>
<wgt id='1798'> +7.7934335e+01 </wgt>
<wgt id='1799'> +7.8976166e+01 </wgt>
<wgt id='1800'> +7.7053131e+01 </wgt>
<wgt id='1801'> +7.9804839e+01 </wgt>
<wgt id='1802'> +7.8470304e+01 </wgt>
<wgt id='1803'> +7.8380932e+01 </wgt>
<wgt id='1804'> +7.9209987e+01 </wgt>
<wgt id='1805'> +7.7761565e+01 </wgt>
<wgt id='1806'> +7.8919704e+01 </wgt>
<wgt id='1807'> +7.8077643e+01 </wgt>
<wgt id='1808'> +7.8641141e+01 </wgt>
<wgt id='1809'> +7.8406368e+01 </wgt>
<wgt id='1810'> +7.8324100e+01 </wgt>
<wgt id='1811'> +8.0063221e+01 </wgt>
<wgt id='1812'> +7.5635221e+01 </wgt>
<wgt id='1813'> +8.4089423e+01 </wgt>
<wgt id='1814'> +8.2881766e+01 </wgt>
<wgt id='1815'> +8.1130459e+01 </wgt>
<wgt id='1816'> +7.7012255e+01 </wgt>
<wgt id='1817'> +7.8195893e+01 </wgt>
<wgt id='1818'> +7.8376027e+01 </wgt>
<wgt id='1819'> +7.7285581e+01 </wgt>
<wgt id='1820'> +8.0743690e+01 </wgt>
<wgt id='1821'> +7.7220578e+01 </wgt>
<wgt id='1822'> +7.8508500e+01 </wgt>
<wgt id='1823'> +7.5790112e+01 </wgt>
<wgt id='1824'> +7.7738356e+01 </wgt>
<wgt id='1825'> +7.7718646e+01 </wgt>
<wgt id='1826'> +7.7698825e+01 </wgt>
<wgt id='1827'> +7.7678723e+01 </wgt>
<wgt id='1828'> +7.7658820e+01 </wgt>
<wgt id='1829'> +7.7639015e+01 </wgt>
<wgt id='1830'> +7.7619270e+01 </wgt>
<wgt id='1831'> +7.7599230e+01 </wgt>
<wgt id='1832'> +7.7579422e+01 </wgt>
<wgt id='1833'> +7.7559557e+01 </wgt>
<wgt id='1834'> +7.7539733e+01 </wgt>
<wgt id='1835'> +7.7519780e+01 </wgt>
<wgt id='1836'> +7.7500073e+01 </wgt>
<wgt id='1837'> +7.7480179e+01 </wgt>
<wgt id='1838'> +7.7460394e+01 </wgt>
<wgt id='1839'> +7.7440301e+01 </wgt>
<wgt id='1840'> +7.7420650e+01 </wgt>
<wgt id='1841'> +7.7400851e+01 </wgt>
<wgt id='1842'> +7.7381002e+01 </wgt>
<wgt id='1843'> +7.7360941e+01 </wgt>
<wgt id='1844'> +7.7341157e+01 </wgt>
<wgt id='1845'> +7.7321481e+01 </wgt>
<wgt id='1846'> +7.7301680e+01 </wgt>
<wgt id='1847'> +7.7281594e+01 </wgt>
<wgt id='1848'> +7.7261829e+01 </wgt>
<wgt id='1849'> +7.7242160e+01 </wgt>
<wgt id='1850'> +7.7222417e+01 </wgt>
<wgt id='1851'> +7.7202375e+01 </wgt>
<wgt id='1852'> +7.7182567e+01 </wgt>
<wgt id='1853'> +7.7162796e+01 </wgt>
<wgt id='1854'> +7.7143080e+01 </wgt>
<wgt id='1855'> +7.6363855e+01 </wgt>
<wgt id='1856'> +7.6504539e+01 </wgt>
<wgt id='1857'> +7.6415827e+01 </wgt>
<wgt id='1858'> +7.6095590e+01 </wgt>
<wgt id='1859'> +7.6329333e+01 </wgt>
<wgt id='1860'> +7.6638565e+01 </wgt>
<wgt id='1861'> +7.6477039e+01 </wgt>
<wgt id='1862'> +7.6590520e+01 </wgt>
<wgt id='1863'> +7.6493511e+01 </wgt>
<wgt id='1864'> +7.6203617e+01 </wgt>
<wgt id='1865'> +7.6509428e+01 </wgt>
<wgt id='1866'> +7.6840289e+01 </wgt>
<wgt id='1867'> +7.5797801e+01 </wgt>
<wgt id='1868'> +7.6123352e+01 </wgt>
<wgt id='1869'> +7.5703502e+01 </wgt>
<wgt id='1870'> +7.6824151e+01 </wgt>
<wgt id='1871'> +7.6221533e+01 </wgt>
<wgt id='1872'> +7.6404025e+01 </wgt>
<wgt id='1873'> +7.6480907e+01 </wgt>
<wgt id='1874'> +7.5917313e+01 </wgt>
<wgt id='1875'> +7.6474486e+01 </wgt>
<wgt id='1876'> +7.6467132e+01 </wgt>
<wgt id='1877'> +7.5744859e+01 </wgt>
<wgt id='1878'> +7.6428956e+01 </wgt>
<wgt id='1879'> +7.6574964e+01 </wgt>
<wgt id='1880'> +7.6148543e+01 </wgt>
<wgt id='1881'> +7.6064126e+01 </wgt>
<wgt id='1882'> +7.6570367e+01 </wgt>
<wgt id='1883'> +7.6320235e+01 </wgt>
<wgt id='1884'> +7.5982619e+01 </wgt>
<wgt id='1885'> +7.6312012e+01 </wgt>
<wgt id='1886'> +7.6333120e+01 </wgt>
<wgt id='1887'> +7.6714944e+01 </wgt>
<wgt id='1888'> +7.6504754e+01 </wgt>
<wgt id='1889'> +7.6282763e+01 </wgt>
<wgt id='1890'> +7.6517606e+01 </wgt>
<wgt id='1891'> +7.6149853e+01 </wgt>
<wgt id='1892'> +7.6790819e+01 </wgt>
<wgt id='1893'> +7.6755166e+01 </wgt>
<wgt id='1894'> +7.6214234e+01 </wgt>
<wgt id='1895'> +7.6365963e+01 </wgt>
<wgt id='1896'> +7.5981457e+01 </wgt>
<wgt id='1897'> +7.6219267e+01 </wgt>
<wgt id='1898'> +7.6481003e+01 </wgt>
<wgt id='1899'> +7.6486589e+01 </wgt>
<wgt id='1900'> +7.6322119e+01 </wgt>
<wgt id='1901'> +7.6357285e+01 </wgt>
<wgt id='1902'> +7.6154343e+01 </wgt>
<wgt id='1903'> +7.6234668e+01 </wgt>
<wgt id='1904'> +7.6232321e+01 </wgt>
<wgt id='1905'> +7.6401771e+01 </wgt>
<wgt id='1906'> +7.6400237e+01 </wgt>
<wgt id='1907'> +7.6324410e+01 </wgt>
<wgt id='1908'> +7.6230773e+01 </wgt>
<wgt id='1909'> +7.6395441e+01 </wgt>
<wgt id='1910'> +7.6190382e+01 </wgt>
<wgt id='1911'> +7.6547055e+01 </wgt>
<wgt id='1912'> +7.6449422e+01 </wgt>
<wgt id='1913'> +7.6338792e+01 </wgt>
<wgt id='1914'> +7.6387760e+01 </wgt>
<wgt id='1915'> +7.6256892e+01 </wgt>
<wgt id='1916'> +7.6538992e+01 </wgt>
<wgt id='1917'> +7.6273612e+01 </wgt>
<wgt id='1918'> +7.6425902e+01 </wgt>
<wgt id='1919'> +7.6287479e+01 </wgt>
<wgt id='1920'> +7.6228310e+01 </wgt>
<wgt id='1921'> +7.6302424e+01 </wgt>
<wgt id='1922'> +7.6341149e+01 </wgt>
<wgt id='1923'> +7.6396339e+01 </wgt>
<wgt id='1924'> +7.6326054e+01 </wgt>
<wgt id='1925'> +7.6313628e+01 </wgt>
<wgt id='1926'> +7.6461885e+01 </wgt>
<wgt id='1927'> +7.6309523e+01 </wgt>
<wgt id='1928'> +7.6344179e+01 </wgt>
<wgt id='1929'> +7.6317516e+01 </wgt>
<wgt id='1930'> +7.6403342e+01 </wgt>
<wgt id='1931'> +7.6384995e+01 </wgt>
<wgt id='1932'> +7.6384129e+01 </wgt>
<wgt id='1933'> +7.6370966e+01 </wgt>
<wgt id='1934'> +7.6351785e+01 </wgt>
<wgt id='1935'> +7.6446520e+01 </wgt>
<wgt id='1936'> +7.6305760e+01 </wgt>
<wgt id='1937'> +7.6371844e+01 </wgt>
<wgt id='1938'> +7.6305888e+01 </wgt>
<wgt id='1939'> +7.6309920e+01 </wgt>
<wgt id='1940'> +7.6389007e+01 </wgt>
<wgt id='1941'> +7.6397956e+01 </wgt>
<wgt id='1942'> +7.6287028e+01 </wgt>
<wgt id='1943'> +7.6367538e+01 </wgt>
<wgt id='1944'> +7.6328169e+01 </wgt>
<wgt id='1945'> +7.6417886e+01 </wgt>
<wgt id='1946'> +7.6334578e+01 </wgt>
<wgt id='1947'> +7.6316948e+01 </wgt>
<wgt id='1948'> +7.6379640e+01 </wgt>
<wgt id='1949'> +7.6360263e+01 </wgt>
<wgt id='1950'> +7.6363601e+01 </wgt>
<wgt id='1951'> +7.6394660e+01 </wgt>
<wgt id='1952'> +7.6380308e+01 </wgt>
<wgt id='1953'> +7.6370843e+01 </wgt>
<wgt id='1954'> +7.6345951e+01 </wgt>
<wgt id='1955'> +7.6370339e+01 </wgt>
<wgt id='1956'> +7.6363358e+01 </wgt>
<wgt id='1957'> +7.6366582e+01 </wgt>
<wgt id='1958'> +7.6364379e+01 </wgt>
<wgt id='1959'> +7.6364466e+01 </wgt>
<wgt id='1960'> +7.6365388e+01 </wgt>
<wgt id='1961'> +7.6364074e+01 </wgt>
<wgt id='1962'> +7.6367165e+01 </wgt>
</rwgt>
</event>
<event npLO=" -1 " npNLO=" 1 ">
 7      1 +1.5146096e+02 1.27553060e+01 7.54677110e-03 1.68783790e-01
       21 -1    0    0  501  502 +0.0000000000e+00 +0.0000000000e+00 +3.8477242000e+00 3.8477242000e+00 0.0000000000e+00 0.0000e+00 9.0000e+00
       -2 -1    0    0    0  501 +0.0000000000e+00 +0.0000000000e+00 -8.9827886000e+02 8.9827886000e+02 0.0000000000e+00 0.0000e+00 9.0000e+00
       23  2    1    2    0    0 -1.2084612000e+01 +4.0816661000e+00 -8.6725064000e+02 8.7210197000e+02 9.0969687000e+01 0.0000e+00 0.0000e+00
       13  1    3    3    0    0 -2.3259831000e+01 +1.0895116000e+01 -1.2603235000e+02 1.2862301000e+02 0.0000000000e+00 0.0000e+00 9.0000e+00
      -13  1    3    3    0    0 +2.6967869000e+01 -9.3707598000e+00 -6.6436645000e+02 6.6497959000e+02 0.0000000000e+00 0.0000e+00 9.0000e+00
       22  1    3    3    0    0 -1.5792649000e+01 +2.5573102000e+00 -7.6851835000e+01 7.8499377000e+01 0.0000000000e+00 0.0000e+00 9.0000e+00
       -2  1    1    2    0  502 +1.2084612000e+01 -4.0816661000e+00 -2.7180498000e+01 3.0024612000e+01 0.0000000000e+00 0.0000e+00 9.0000e+00
#aMCatNLO 1  0  0  1  6 0.15466352E+01 0.00000000E+00 -9  7  0 0.00000000E+00 0.00000000E+00 0.00000000E+00 0.00000000E+00 0.00000000E+00
<rwgt>
<wgt id='1001'> +1.5146000e+02 </wgt>
<wgt id='1002'> +1.5146000e+02 </wgt>
<wgt id='1003'> +1.4090000e+02 </wgt>
<wgt id='1004'> +1.4537000e+02 </wgt>
<wgt id='1005'> +1.5057000e+02 </wgt>
<wgt id='1006'> +1.5054000e+02 </wgt>
<wgt id='1007'> +1.4407000e+02 </wgt>
<wgt id='1008'> +1.4444000e+02 </wgt>
<wgt id='1009'> +1.5138000e+02 </wgt>
<wgt id='1010'> +1.5170000e+02 </wgt>
<wgt id='1011'> +1.5194000e+02 </wgt>
<wgt id='1012'> +1.6447000e+02 </wgt>
<wgt id='1013'> +1.4972000e+02 </wgt>
<wgt id='1014'> +1.4686000e+02 </wgt>
<wgt id='1015'> +1.5417000e+02 </wgt>
<wgt id='1016'> +1.6437000e+02 </wgt>
<wgt id='1017'> +1.5084000e+02 </wgt>
<wgt id='1018'> +1.4694000e+02 </wgt>
<wgt id='1019'> +1.5437000e+02 </wgt>
<wgt id='1020'> +1.4472000e+02 </wgt>
<wgt id='1021'> +1.4775000e+02 </wgt>
<wgt id='1022'> +1.5871000e+02 </wgt>
<wgt id='1023'> +1.5364000e+02 </wgt>
<wgt id='1024'> +1.5923000e+02 </wgt>
<wgt id='1025'> +1.5605000e+02 </wgt>
<wgt id='1026'> +1.6670000e+02 </wgt>
<wgt id='1027'> +1.5050000e+02 </wgt>
<wgt id='1028'> +1.5047000e+02 </wgt>
<wgt id='1029'> +1.4931000e+02 </wgt>
<wgt id='1030'> +1.5650000e+02 </wgt>
<wgt id='1031'> +1.5193000e+02 </wgt>
<wgt id='1032'> +1.5140000e+02 </wgt>
<wgt id='1033'> +1.6597000e+02 </wgt>
<wgt id='1034'> +1.5782000e+02 </wgt>
<wgt id='1035'> +1.5755000e+02 </wgt>
<wgt id='1036'> +1.5461000e+02 </wgt>
<wgt id='1037'> +1.5893000e+02 </wgt>
<wgt id='1038'> +1.4412000e+02 </wgt>
<wgt id='1039'> +1.5755000e+02 </wgt>
<wgt id='1040'> +1.4906000e+02 </wgt>
<wgt id='1041'> +1.5361000e+02 </wgt>
<wgt id='1042'> +1.5138000e+02 </wgt>
<wgt id='1043'> +1.4725000e+02 </wgt>
<wgt id='1044'> +1.4015000e+02 </wgt>
<wgt id='1045'> +1.5854000e+02 </wgt>
<wgt id='1046'> +1.5181000e+02 </wgt>
<wgt id='1047'> +1.5920000e+02 </wgt>
<wgt id='1048'> +1.4469000e+02 </wgt>
<wgt id='1049'> +1.4047000e+02 </wgt>
<wgt id='1050'> +1.5290000e+02 </wgt>
<wgt id='1051'> +1.4783000e+02 </wgt>
<wgt id='1052'> +1.5438000e+02 </wgt>
<wgt id='1053'> +1.4938000e+02 </wgt>
<wgt id='1054'> +1.5222000e+02 </wgt>
<wgt id='1055'> +1.5542000e+02 </wgt>
<wgt id='1056'> +1.5446000e+02 </wgt>
<wgt id='1057'> +1.6036000e+02 </wgt>
<wgt id='1058'> +1.5287000e+02 </wgt>
<wgt id='1059'> +1.4837000e+02 </wgt>
<wgt id='1060'> +1.4895000e+02 </wgt>
<wgt id='1061'> +1.5102000e+02 </wgt>
<wgt id='1062'> +1.4903000e+02 </wgt>
<wgt id='1063'> +1.4640000e+02 </wgt>
<wgt id='1064'> +1.4471000e+02 </wgt>
<wgt id='1065'> +1.4779000e+02 </wgt>
<wgt id='1066'> +1.4235000e+02 </wgt>
<wgt id='1067'> +1.5300000e+02 </wgt>
<wgt id='1068'> +1.5704000e+02 </wgt>
<wgt id='1069'> +1.5378000e+02 </wgt>
<wgt id='1070'> +1.5984000e+02 </wgt>
<wgt id='1071'> +1.5463000e+02 </wgt>
<wgt id='1072'> +1.6306000e+02 </wgt>
<wgt id='1073'> +1.4666000e+02 </wgt>
<wgt id='1074'> +1.4119000e+02 </wgt>
<wgt id='1075'> +1.4495000e+02 </wgt>
<wgt id='1076'> +1.4541000e+02 </wgt>
<wgt id='1077'> +1.4766000e+02 </wgt>
<wgt id='1078'> +1.5275000e+02 </wgt>
<wgt id='1079'> +1.5681000e+02 </wgt>
<wgt id='1080'> +1.4479000e+02 </wgt>
<wgt id='1081'> +1.4650000e+02 </wgt>
<wgt id='1082'> +1.5228000e+02 </wgt>
<wgt id='1083'> +1.5540000e+02 </wgt>
<wgt id='1084'> +1.5262000e+02 </wgt>
<wgt id='1085'> +1.4083000e+02 </wgt>
<wgt id='1086'> +1.6097000e+02 </wgt>
<wgt id='1087'> +1.4303000e+02 </wgt>
<wgt id='1088'> +1.4445000e+02 </wgt>
<wgt id='1089'> +1.4649000e+02 </wgt>
<wgt id='1090'> +1.4136000e+02 </wgt>
<wgt id='1091'> +1.5126000e+02 </wgt>
<wgt id='1092'> +1.5961000e+02 </wgt>
<wgt id='1093'> +1.5102000e+02 </wgt>
<wgt id='1094'> +1.5108000e+02 </wgt>
<wgt id='1095'> +1.5112000e+02 </wgt>
<wgt id='1096'> +1.4536000e+02 </wgt>
<wgt id='1097'> +1.5263000e+02 </wgt>
<wgt id='1098'> +1.5238000e+02 </wgt>
<wgt id='1099'> +1.6033000e+02 </wgt>
<wgt id='1100'> +1.5817000e+02 </wgt>
<wgt id='1101'> +1.4434000e+02 </wgt>
<wgt id='1102'> +1.5299000e+02 </wgt>
<wgt id='1103'> +1.4735000e+02 </wgt>
<wgt id='1104'> +1.5357000e+02 </wgt>
<wgt id='1105'> +1.5146096e+02 </wgt>
<wgt id='1106'> +5.9691905e+01 </wgt>
<wgt id='1107'> +1.0065894e+02 </wgt>
<wgt id='1108'> +9.7014676e+01 </wgt>
<wgt id='1109'> +7.6015515e+01 </wgt>
<wgt id='1110'> +1.2977896e+02 </wgt>
<wgt id='1111'> +5.5688842e+01 </wgt>
<wgt id='1112'> +4.4248246e+01 </wgt>
<wgt id='1113'> +7.3372565e+01 </wgt>
<wgt id='1114'> +7.3166186e+01 </wgt>
<wgt id='1115'> +8.0824921e+01 </wgt>
<wgt id='1116'> +7.7033047e+01 </wgt>
<wgt id='1117'> +6.9006873e+01 </wgt>
<wgt id='1118'> +7.6498428e+01 </wgt>
<wgt id='1119'> +6.8925206e+01 </wgt>
<wgt id='1120'> +6.9459709e+01 </wgt>
<wgt id='1121'> +7.2167925e+01 </wgt>
<wgt id='1122'> +7.3811199e+01 </wgt>
<wgt id='1123'> +7.0241473e+01 </wgt>
<wgt id='1124'> +7.2951867e+01 </wgt>
<wgt id='1125'> +7.4723303e+01 </wgt>
<wgt id='1126'> +7.2844192e+01 </wgt>
<wgt id='1127'> +7.4897455e+01 </wgt>
<wgt id='1128'> +7.4964089e+01 </wgt>
<wgt id='1129'> +7.1046117e+01 </wgt>
<wgt id='1130'> +6.9846643e+01 </wgt>
<wgt id='1131'> +7.4042436e+01 </wgt>
<wgt id='1132'> +7.2543934e+01 </wgt>
<wgt id='1133'> +7.5223458e+01 </wgt>
<wgt id='1134'> +6.4325281e+01 </wgt>
<wgt id='1135'> +7.3111245e+01 </wgt>
<wgt id='1136'> +7.9252767e+01 </wgt>
<wgt id='1137'> +7.6958611e+01 </wgt>
<wgt id='1138'> +7.0059151e+01 </wgt>
<wgt id='1139'> +7.1023606e+01 </wgt>
<wgt id='1140'> +6.8160300e+01 </wgt>
<wgt id='1141'> +7.9916189e+01 </wgt>
<wgt id='1142'> +7.3397295e+01 </wgt>
<wgt id='1143'> +7.3628461e+01 </wgt>
<wgt id='1144'> +7.4378940e+01 </wgt>
<wgt id='1145'> +7.4128986e+01 </wgt>
<wgt id='1146'> +7.2774696e+01 </wgt>
<wgt id='1147'> +7.1138188e+01 </wgt>
<wgt id='1148'> +7.4915049e+01 </wgt>
<wgt id='1149'> +7.4010613e+01 </wgt>
<wgt id='1150'> +7.0048109e+01 </wgt>
<wgt id='1151'> +7.1591600e+01 </wgt>
<wgt id='1152'> +6.9384361e+01 </wgt>
<wgt id='1153'> +7.4031601e+01 </wgt>
<wgt id='1154'> +6.8528106e+01 </wgt>
<wgt id='1155'> +7.5342920e+01 </wgt>
<wgt id='1156'> +7.3322738e+01 </wgt>
<wgt id='1157'> +7.7969805e+01 </wgt>
<wgt id='1158'> +7.3427005e+01 </wgt>
<wgt id='1159'> +7.0088270e+01 </wgt>
<wgt id='1160'> +7.2296266e+01 </wgt>
<wgt id='1161'> +7.4732832e+01 </wgt>
<wgt id='1162'> +7.2641113e+01 </wgt>
<wgt id='1163'> +7.6242175e+01 </wgt>
<wgt id='1164'> +7.2150164e+01 </wgt>
<wgt id='1165'> +7.2226657e+01 </wgt>
<wgt id='1166'> +6.7578406e+01 </wgt>
<wgt id='1167'> +7.3848982e+01 </wgt>
<wgt id='1168'> +7.9151976e+01 </wgt>
<wgt id='1169'> +7.3527297e+01 </wgt>
<wgt id='1170'> +7.8760192e+01 </wgt>
<wgt id='1171'> +7.6750427e+01 </wgt>
<wgt id='1172'> +7.5423073e+01 </wgt>
<wgt id='1173'> +7.1740446e+01 </wgt>
<wgt id='1174'> +7.2196144e+01 </wgt>
<wgt id='1175'> +7.6305306e+01 </wgt>
<wgt id='1176'> +7.4740070e+01 </wgt>
<wgt id='1177'> +7.5137367e+01 </wgt>
<wgt id='1178'> +7.5298261e+01 </wgt>
<wgt id='1179'> +6.9429568e+01 </wgt>
<wgt id='1180'> +7.0389274e+01 </wgt>
<wgt id='1181'> +7.7094837e+01 </wgt>
<wgt id='1182'> +7.5029766e+01 </wgt>
<wgt id='1183'> +7.3580572e+01 </wgt>
<wgt id='1184'> +7.9681442e+01 </wgt>
<wgt id='1185'> +7.3788892e+01 </wgt>
<wgt id='1186'> +6.8843774e+01 </wgt>
<wgt id='1187'> +6.4462669e+01 </wgt>
<wgt id='1188'> +6.8524176e+01 </wgt>
<wgt id='1189'> +6.8139986e+01 </wgt>
<wgt id='1190'> +7.5378191e+01 </wgt>
<wgt id='1191'> +7.8174005e+01 </wgt>
<wgt id='1192'> +7.1205533e+01 </wgt>
<wgt id='1193'> +6.8022111e+01 </wgt>
<wgt id='1194'> +8.0518095e+01 </wgt>
<wgt id='1195'> +7.8952028e+01 </wgt>
<wgt id='1196'> +6.9846643e+01 </wgt>
<wgt id='1197'> +6.6386500e+01 </wgt>
<wgt id='1198'> +7.5510207e+01 </wgt>
<wgt id='1199'> +7.0191799e+01 </wgt>
<wgt id='1200'> +7.7073111e+01 </wgt>
<wgt id='1201'> +7.0985243e+01 </wgt>
<wgt id='1202'> +8.1357176e+01 </wgt>
<wgt id='1203'> +6.7261942e+01 </wgt>
<wgt id='1204'> +7.1191346e+01 </wgt>
<wgt id='1205'> +7.1921074e+01 </wgt>
<wgt id='1206'> +6.1391724e+01 </wgt>
<wgt id='1207'> +7.0289053e+01 </wgt>
<wgt id='1208'> +7.4248518e+01 </wgt>
<wgt id='1209'> +7.5183198e+01 </wgt>
<wgt id='1210'> +7.7385952e+01 </wgt>
<wgt id='1211'> +7.4221620e+01 </wgt>
<wgt id='1212'> +7.3222248e+01 </wgt>
<wgt id='1213'> +7.7763567e+01 </wgt>
<wgt id='1214'> +7.3645356e+01 </wgt>
<wgt id='1215'> +7.2330708e+01 </wgt>
<wgt id='1216'> +7.8444125e+01 </wgt>
<wgt id='1217'> +7.8046213e+01 </wgt>
<wgt id='1218'> +7.9152277e+01 </wgt>
<wgt id='1219'> +7.7519298e+01 </wgt>
<wgt id='1220'> +7.8704997e+01 </wgt>
<wgt id='1221'> +7.7583350e+01 </wgt>
<wgt id='1222'> +7.7936609e+01 </wgt>
<wgt id='1223'> +7.8003837e+01 </wgt>
<wgt id='1224'> +7.8533186e+01 </wgt>
<wgt id='1225'> +7.8354187e+01 </wgt>
<wgt id='1226'> +7.8017239e+01 </wgt>
<wgt id='1227'> +7.8474623e+01 </wgt>
<wgt id='1228'> +7.8580104e+01 </wgt>
<wgt id='1229'> +7.8687955e+01 </wgt>
<wgt id='1230'> +7.8789164e+01 </wgt>
<wgt id='1231'> +7.8394547e+01 </wgt>
<wgt id='1232'> +7.8671278e+01 </wgt>
<wgt id='1233'> +7.8477657e+01 </wgt>
<wgt id='1234'> +7.8458106e+01 </wgt>
<wgt id='1235'> +7.8401435e+01 </wgt>
<wgt id='1236'> +7.8611828e+01 </wgt>
<wgt id='1237'> +7.8731985e+01 </wgt>
<wgt id='1238'> +7.8543953e+01 </wgt>
<wgt id='1239'> +7.8321057e+01 </wgt>
<wgt id='1240'> +7.8938871e+01 </wgt>
<wgt id='1241'> +7.8216834e+01 </wgt>
<wgt id='1242'> +7.8357845e+01 </wgt>
<wgt id='1243'> +7.8765896e+01 </wgt>
<wgt id='1244'> +7.8204902e+01 </wgt>
<wgt id='1245'> +7.8662133e+01 </wgt>
<wgt id='1246'> +7.8808194e+01 </wgt>
<wgt id='1247'> +7.8986338e+01 </wgt>
<wgt id='1248'> +7.7906800e+01 </wgt>
<wgt id='1249'> +7.8522113e+01 </wgt>
<wgt id='1250'> +7.8522021e+01 </wgt>
<wgt id='1251'> +7.7698395e+01 </wgt>
<wgt id='1252'> +7.7591577e+01 </wgt>
<wgt id='1253'> +7.8400436e+01 </wgt>
<wgt id='1254'> +7.7951878e+01 </wgt>
<wgt id='1255'> +7.8167367e+01 </wgt>
<wgt id='1256'> +7.8343738e+01 </wgt>
<wgt id='1257'> +7.7784270e+01 </wgt>
<wgt id='1258'> +7.8176543e+01 </wgt>
<wgt id='1259'> +7.9192239e+01 </wgt>
<wgt id='1260'> +7.8137624e+01 </wgt>
<wgt id='1261'> +7.8174239e+01 </wgt>
<wgt id='1262'> +7.8159047e+01 </wgt>
<wgt id='1263'> +7.8797640e+01 </wgt>
<wgt id='1264'> +7.8477110e+01 </wgt>
<wgt id='1265'> +7.8389539e+01 </wgt>
<wgt id='1266'> +7.9120058e+01 </wgt>
<wgt id='1267'> +7.8896160e+01 </wgt>
<wgt id='1268'> +7.8682684e+01 </wgt>
<wgt id='1269'> +7.8167270e+01 </wgt>
<wgt id='1270'> +7.8459561e+01 </wgt>
<wgt id='1271'> +7.8079734e+01 </wgt>
<wgt id='1272'> +7.8172335e+01 </wgt>
<wgt id='1273'> +7.8385587e+01 </wgt>
<wgt id='1274'> +7.7648527e+01 </wgt>
<wgt id='1275'> +7.8094469e+01 </wgt>
<wgt id='1276'> +7.8566384e+01 </wgt>
<wgt id='1277'> +7.8621844e+01 </wgt>
<wgt id='1278'> +7.8762613e+01 </wgt>
<wgt id='1279'> +7.8666335e+01 </wgt>
<wgt id='1280'> +7.8493376e+01 </wgt>
<wgt id='1281'> +7.8415968e+01 </wgt>
<wgt id='1282'> +7.8756054e+01 </wgt>
<wgt id='1283'> +7.8644861e+01 </wgt>
<wgt id='1284'> +7.8714666e+01 </wgt>
<wgt id='1285'> +7.8503080e+01 </wgt>
<wgt id='1286'> +7.8039806e+01 </wgt>
<wgt id='1287'> +7.8222494e+01 </wgt>
<wgt id='1288'> +7.8683472e+01 </wgt>
<wgt id='1289'> +7.8115222e+01 </wgt>
<wgt id='1290'> +7.8269022e+01 </wgt>
<wgt id='1291'> +7.8021060e+01 </wgt>
<wgt id='1292'> +7.8614755e+01 </wgt>
<wgt id='1293'> +7.8106941e+01 </wgt>
<wgt id='1294'> +7.8315259e+01 </wgt>
<wgt id='1295'> +7.8215527e+01 </wgt>
<wgt id='1296'> +7.8088154e+01 </wgt>
<wgt id='1297'> +7.8315355e+01 </wgt>
<wgt id='1298'> +7.8738274e+01 </wgt>
<wgt id='1299'> +7.8553410e+01 </wgt>
<wgt id='1300'> +7.7958982e+01 </wgt>
<wgt id='1301'> +7.8746857e+01 </wgt>
<wgt id='1302'> +7.8518028e+01 </wgt>
<wgt id='1303'> +7.9043667e+01 </wgt>
<wgt id='1304'> +7.8349961e+01 </wgt>
<wgt id='1305'> +7.7764038e+01 </wgt>
<wgt id='1306'> +7.8113823e+01 </wgt>
<wgt id='1307'> +7.8699066e+01 </wgt>
<wgt id='1308'> +7.8591257e+01 </wgt>
<wgt id='1309'> +7.8418446e+01 </wgt>
<wgt id='1310'> +7.9064720e+01 </wgt>
<wgt id='1311'> +7.8653084e+01 </wgt>
<wgt id='1312'> +7.8331614e+01 </wgt>
<wgt id='1313'> +7.8356174e+01 </wgt>
<wgt id='1314'> +7.8483328e+01 </wgt>
<wgt id='1315'> +7.8540711e+01 </wgt>
<wgt id='1316'> +7.8233046e+01 </wgt>
<wgt id='1317'> +7.6592034e+01 </wgt>
<wgt id='1318'> +8.0824336e+01 </wgt>
<wgt id='1319'> +1.1942800e+02 </wgt>
<wgt id='1320'> +7.6642518e+01 </wgt>
<wgt id='1321'> +7.6528099e+01 </wgt>
<wgt id='1322'> +7.8378843e+01 </wgt>
<wgt id='1323'> +7.5363234e+01 </wgt>
<wgt id='1324'> +7.8470388e+01 </wgt>
<wgt id='1325'> +7.8921432e+01 </wgt>
<wgt id='1326'> +7.5559840e+01 </wgt>
<wgt id='1327'> +7.6966216e+01 </wgt>
<wgt id='1328'> +7.4998169e+01 </wgt>
<wgt id='1329'> +7.5948879e+01 </wgt>
<wgt id='1330'> +7.7699807e+01 </wgt>
<wgt id='1331'> +7.2786411e+01 </wgt>
<wgt id='1332'> +7.9363465e+01 </wgt>
<wgt id='1333'> +7.6808671e+01 </wgt>
<wgt id='1334'> +7.5514824e+01 </wgt>
<wgt id='1335'> +7.8769068e+01 </wgt>
<wgt id='1336'> +7.3711785e+01 </wgt>
<wgt id='1337'> +7.8394737e+01 </wgt>
<wgt id='1338'> +7.4524390e+01 </wgt>
<wgt id='1339'> +7.4866787e+01 </wgt>
<wgt id='1340'> +7.8297749e+01 </wgt>
<wgt id='1341'> +7.6254577e+01 </wgt>
<wgt id='1342'> +7.6640124e+01 </wgt>
<wgt id='1343'> +7.6852642e+01 </wgt>
<wgt id='1344'> +7.6264889e+01 </wgt>
<wgt id='1345'> +7.5282620e+01 </wgt>
<wgt id='1346'> +7.7930009e+01 </wgt>
<wgt id='1347'> +7.6031303e+01 </wgt>
<wgt id='1348'> +7.7499705e+01 </wgt>
<wgt id='1349'> +7.2586810e+01 </wgt>
<wgt id='1350'> +7.8069056e+01 </wgt>
<wgt id='1351'> +7.6688227e+01 </wgt>
<wgt id='1352'> +7.6578646e+01 </wgt>
<wgt id='1353'> +7.8491664e+01 </wgt>
<wgt id='1354'> +7.2553035e+01 </wgt>
<wgt id='1355'> +7.9549651e+01 </wgt>
<wgt id='1356'> +7.3898856e+01 </wgt>
<wgt id='1357'> +7.7638641e+01 </wgt>
<wgt id='1358'> +7.5108279e+01 </wgt>
<wgt id='1359'> +7.3715579e+01 </wgt>
<wgt id='1360'> +7.8134848e+01 </wgt>
<wgt id='1361'> +7.4528210e+01 </wgt>
<wgt id='1362'> +7.9202628e+01 </wgt>
<wgt id='1363'> +7.5126664e+01 </wgt>
<wgt id='1364'> +7.7876690e+01 </wgt>
<wgt id='1365'> +7.7124800e+01 </wgt>
<wgt id='1366'> +7.7542319e+01 </wgt>
<wgt id='1367'> +7.5233120e+01 </wgt>
<wgt id='1368'> +7.7522234e+01 </wgt>
<wgt id='1369'> +7.7109322e+01 </wgt>
<wgt id='1370'> +7.7268133e+01 </wgt>
<wgt id='1371'> +7.5607450e+01 </wgt>
<wgt id='1372'> +7.4749145e+01 </wgt>
<wgt id='1373'> +7.7007421e+01 </wgt>
<wgt id='1374'> +7.4068061e+01 </wgt>
<wgt id='1375'> +7.6306551e+01 </wgt>
<wgt id='1376'> +7.8737776e+01 </wgt>
<wgt id='1377'> +7.3459003e+01 </wgt>
<wgt id='1378'> +7.9858869e+01 </wgt>
<wgt id='1379'> +7.0437449e+01 </wgt>
<wgt id='1380'> +6.7946712e+01 </wgt>
<wgt id='1381'> +7.3114020e+01 </wgt>
<wgt id='1382'> +1.0681387e+02 </wgt>
<wgt id='1383'> +8.3378536e+01 </wgt>
<wgt id='1384'> +7.7166263e+01 </wgt>
<wgt id='1385'> +1.5921465e+02 </wgt>
<wgt id='1386'> +1.5927271e+02 </wgt>
<wgt id='1387'> +1.5917157e+02 </wgt>
<wgt id='1388'> +1.5998465e+02 </wgt>
<wgt id='1389'> +1.5786267e+02 </wgt>
<wgt id='1390'> +1.5956391e+02 </wgt>
<wgt id='1391'> +1.5884378e+02 </wgt>
<wgt id='1392'> +1.6099018e+02 </wgt>
<wgt id='1393'> +1.5798970e+02 </wgt>
<wgt id='1394'> +1.5853803e+02 </wgt>
<wgt id='1395'> +1.6007770e+02 </wgt>
<wgt id='1396'> +1.5695100e+02 </wgt>
<wgt id='1397'> +1.6041433e+02 </wgt>
<wgt id='1398'> +1.5864598e+02 </wgt>
<wgt id='1399'> +1.5967246e+02 </wgt>
<wgt id='1400'> +1.6039069e+02 </wgt>
<wgt id='1401'> +1.5831769e+02 </wgt>
<wgt id='1402'> +1.6110204e+02 </wgt>
<wgt id='1403'> +1.5834709e+02 </wgt>
<wgt id='1404'> +1.6405788e+02 </wgt>
<wgt id='1405'> +1.5682155e+02 </wgt>
<wgt id='1406'> +1.5946215e+02 </wgt>
<wgt id='1407'> +1.5877630e+02 </wgt>
<wgt id='1408'> +1.5832528e+02 </wgt>
<wgt id='1409'> +1.6100798e+02 </wgt>
<wgt id='1410'> +1.5987037e+02 </wgt>
<wgt id='1411'> +1.5751543e+02 </wgt>
<wgt id='1412'> +1.5884641e+02 </wgt>
<wgt id='1413'> +1.5926264e+02 </wgt>
<wgt id='1414'> +1.6001023e+02 </wgt>
<wgt id='1415'> +1.5871097e+02 </wgt>
<wgt id='1416'> +1.5783472e+02 </wgt>
<wgt id='1417'> +1.6091188e+02 </wgt>
<wgt id='1418'> +1.5798026e+02 </wgt>
<wgt id='1419'> +1.6217509e+02 </wgt>
<wgt id='1420'> +1.5873199e+02 </wgt>
<wgt id='1421'> +1.5887006e+02 </wgt>
<wgt id='1422'> +1.5749469e+02 </wgt>
<wgt id='1423'> +1.6139200e+02 </wgt>
<wgt id='1424'> +1.6081005e+02 </wgt>
<wgt id='1425'> +1.5627539e+02 </wgt>
<wgt id='1426'> +1.6027080e+02 </wgt>
<wgt id='1427'> +1.5823286e+02 </wgt>
<wgt id='1428'> +1.5783876e+02 </wgt>
<wgt id='1429'> +1.5734868e+02 </wgt>
<wgt id='1430'> +1.5945882e+02 </wgt>
<wgt id='1431'> +1.5960322e+02 </wgt>
<wgt id='1432'> +1.5911181e+02 </wgt>
<wgt id='1433'> +1.5989426e+02 </wgt>
<wgt id='1434'> +1.6165570e+02 </wgt>
<wgt id='1435'> +1.6347022e+02 </wgt>
<wgt id='1436'> +6.7482413e+01 </wgt>
<wgt id='1437'> +6.7546401e+01 </wgt>
<wgt id='1438'> +6.7152089e+01 </wgt>
<wgt id='1439'> +6.7485272e+01 </wgt>
<wgt id='1440'> +6.7434053e+01 </wgt>
<wgt id='1441'> +6.7856150e+01 </wgt>
<wgt id='1442'> +6.7237684e+01 </wgt>
<wgt id='1443'> +6.7868980e+01 </wgt>
<wgt id='1444'> +6.7280923e+01 </wgt>
<wgt id='1445'> +6.7024245e+01 </wgt>
<wgt id='1446'> +6.7951930e+01 </wgt>
<wgt id='1447'> +6.7537681e+01 </wgt>
<wgt id='1448'> +6.7529869e+01 </wgt>
<wgt id='1449'> +6.8297795e+01 </wgt>
<wgt id='1450'> +6.7661837e+01 </wgt>
<wgt id='1451'> +6.7650512e+01 </wgt>
<wgt id='1452'> +6.7238960e+01 </wgt>
<wgt id='1453'> +6.7992836e+01 </wgt>
<wgt id='1454'> +6.7715453e+01 </wgt>
<wgt id='1455'> +6.7750489e+01 </wgt>
<wgt id='1456'> +6.8515550e+01 </wgt>
<wgt id='1457'> +6.7139280e+01 </wgt>
<wgt id='1458'> +6.7471415e+01 </wgt>
<wgt id='1459'> +6.8548152e+01 </wgt>
<wgt id='1460'> +6.7631875e+01 </wgt>
<wgt id='1461'> +6.6826893e+01 </wgt>
<wgt id='1462'> +6.8561555e+01 </wgt>
<wgt id='1463'> +6.5606538e+01 </wgt>
<wgt id='1464'> +6.7044171e+01 </wgt>
<wgt id='1465'> +7.3198339e+01 </wgt>
<wgt id='1466'> +7.8338020e+01 </wgt>
<wgt id='1467'> +7.9426921e+01 </wgt>
<wgt id='1468'> +7.7766907e+01 </wgt>
<wgt id='1469'> +7.9271443e+01 </wgt>
<wgt id='1470'> +7.8711983e+01 </wgt>
<wgt id='1471'> +7.8343778e+01 </wgt>
<wgt id='1472'> +7.8142450e+01 </wgt>
<wgt id='1473'> +7.9165666e+01 </wgt>
<wgt id='1474'> +7.9872789e+01 </wgt>
<wgt id='1475'> +7.8644108e+01 </wgt>
<wgt id='1476'> +7.9251880e+01 </wgt>
<wgt id='1477'> +7.8550395e+01 </wgt>
<wgt id='1478'> +7.8550303e+01 </wgt>
<wgt id='1479'> +7.6458417e+01 </wgt>
<wgt id='1480'> +7.8676922e+01 </wgt>
<wgt id='1481'> +7.8589041e+01 </wgt>
<wgt id='1482'> +7.8109667e+01 </wgt>
<wgt id='1483'> +7.9568599e+01 </wgt>
<wgt id='1484'> +7.8358120e+01 </wgt>
<wgt id='1485'> +7.8083137e+01 </wgt>
<wgt id='1486'> +7.9013264e+01 </wgt>
<wgt id='1487'> +7.7781831e+01 </wgt>
<wgt id='1488'> +7.8678217e+01 </wgt>
<wgt id='1489'> +7.9072074e+01 </wgt>
<wgt id='1490'> +7.7864090e+01 </wgt>
<wgt id='1491'> +7.6189527e+01 </wgt>
<wgt id='1492'> +7.7828157e+01 </wgt>
<wgt id='1493'> +7.9386321e+01 </wgt>
<wgt id='1494'> +7.7055548e+01 </wgt>
<wgt id='1495'> +7.8325572e+01 </wgt>
<wgt id='1496'> +7.9396011e+01 </wgt>
<wgt id='1497'> +7.8135466e+01 </wgt>
<wgt id='1498'> +7.8582437e+01 </wgt>
<wgt id='1499'> +7.8598882e+01 </wgt>
<wgt id='1500'> +7.8709135e+01 </wgt>
<wgt id='1501'> +7.8657125e+01 </wgt>
<wgt id='1502'> +7.8275608e+01 </wgt>
<wgt id='1503'> +7.8831606e+01 </wgt>
<wgt id='1504'> +7.8554639e+01 </wgt>
<wgt id='1505'> +7.9072178e+01 </wgt>
<wgt id='1506'> +7.8322191e+01 </wgt>
<wgt id='1507'> +7.8343430e+01 </wgt>
<wgt id='1508'> +7.8978485e+01 </wgt>
<wgt id='1509'> +7.8323173e+01 </wgt>
<wgt id='1510'> +7.7976665e+01 </wgt>
<wgt id='1511'> +7.9039225e+01 </wgt>
<wgt id='1512'> +7.8501431e+01 </wgt>
<wgt id='1513'> +7.8266709e+01 </wgt>
<wgt id='1514'> +7.8302664e+01 </wgt>
<wgt id='1515'> +7.8373340e+01 </wgt>
<wgt id='1516'> +7.8656908e+01 </wgt>
<wgt id='1517'> +7.8641932e+01 </wgt>
<wgt id='1518'> +7.8557241e+01 </wgt>
<wgt id='1519'> +7.8329707e+01 </wgt>
<wgt id='1520'> +7.7953509e+01 </wgt>
<wgt id='1521'> +7.8558961e+01 </wgt>
<wgt id='1522'> +7.8372745e+01 </wgt>
<wgt id='1523'> +7.8751891e+01 </wgt>
<wgt id='1524'> +7.7916976e+01 </wgt>
<wgt id='1525'> +7.7799625e+01 </wgt>
<wgt id='1526'> +7.8528994e+01 </wgt>
<wgt id='1527'> +7.8212974e+01 </wgt>
<wgt id='1528'> +7.8121475e+01 </wgt>
<wgt id='1529'> +7.7927526e+01 </wgt>
<wgt id='1530'> +7.8204748e+01 </wgt>
<wgt id='1531'> +7.8415069e+01 </wgt>
<wgt id='1532'> +7.7536466e+01 </wgt>
<wgt id='1533'> +7.8136662e+01 </wgt>
<wgt id='1534'> +7.8360991e+01 </wgt>
<wgt id='1535'> +7.8362315e+01 </wgt>
<wgt id='1536'> +7.8269826e+01 </wgt>
<wgt id='1537'> +7.8145405e+01 </wgt>
<wgt id='1538'> +7.8424827e+01 </wgt>
<wgt id='1539'> +7.9057575e+01 </wgt>
<wgt id='1540'> +7.8125164e+01 </wgt>
<wgt id='1541'> +7.8466726e+01 </wgt>
<wgt id='1542'> +7.8346976e+01 </wgt>
<wgt id='1543'> +7.8514720e+01 </wgt>
<wgt id='1544'> +7.7575521e+01 </wgt>
<wgt id='1545'> +7.8658782e+01 </wgt>
<wgt id='1546'> +7.9064409e+01 </wgt>
<wgt id='1547'> +7.9119979e+01 </wgt>
<wgt id='1548'> +7.7875565e+01 </wgt>
<wgt id='1549'> +7.8847062e+01 </wgt>
<wgt id='1550'> +7.8664103e+01 </wgt>
<wgt id='1551'> +7.8175649e+01 </wgt>
<wgt id='1552'> +7.8728780e+01 </wgt>
<wgt id='1553'> +7.8067345e+01 </wgt>
<wgt id='1554'> +7.8489622e+01 </wgt>
<wgt id='1555'> +7.8058632e+01 </wgt>
<wgt id='1556'> +7.8425237e+01 </wgt>
<wgt id='1557'> +7.8125966e+01 </wgt>
<wgt id='1558'> +7.8442462e+01 </wgt>
<wgt id='1559'> +7.8143474e+01 </wgt>
<wgt id='1560'> +7.8399533e+01 </wgt>
<wgt id='1561'> +7.8331297e+01 </wgt>
<wgt id='1562'> +7.8228052e+01 </wgt>
<wgt id='1563'> +7.8505701e+01 </wgt>
<wgt id='1564'> +7.8345547e+01 </wgt>
<wgt id='1565'> +7.8354868e+01 </wgt>
<wgt id='1566'> +7.8236314e+01 </wgt>
<wgt id='1567'> +7.5872166e+01 </wgt>
<wgt id='1568'> +8.0653795e+01 </wgt>
<wgt id='1569'> +7.3261930e+01 </wgt>
<wgt id='1570'> +7.3943279e+01 </wgt>
<wgt id='1571'> +7.3039292e+01 </wgt>
<wgt id='1572'> +7.3675804e+01 </wgt>
<wgt id='1573'> +7.3866749e+01 </wgt>
<wgt id='1574'> +7.2933397e+01 </wgt>
<wgt id='1575'> +7.3455766e+01 </wgt>
<wgt id='1576'> +7.4112773e+01 </wgt>
<wgt id='1577'> +7.3571993e+01 </wgt>
<wgt id='1578'> +7.2814624e+01 </wgt>
<wgt id='1579'> +7.3176709e+01 </wgt>
<wgt id='1580'> +7.3048062e+01 </wgt>
<wgt id='1581'> +7.2609223e+01 </wgt>
<wgt id='1582'> +7.2572321e+01 </wgt>
<wgt id='1583'> +7.3337516e+01 </wgt>
<wgt id='1584'> +7.5275686e+01 </wgt>
<wgt id='1585'> +7.2654354e+01 </wgt>
<wgt id='1586'> +7.3329949e+01 </wgt>
<wgt id='1587'> +7.4017709e+01 </wgt>
<wgt id='1588'> +7.2276089e+01 </wgt>
<wgt id='1589'> +7.2370426e+01 </wgt>
<wgt id='1590'> +7.3752962e+01 </wgt>
<wgt id='1591'> +7.2644665e+01 </wgt>
<wgt id='1592'> +7.3206441e+01 </wgt>
<wgt id='1593'> +7.3768401e+01 </wgt>
<wgt id='1594'> +7.3705130e+01 </wgt>
<wgt id='1595'> +7.3387339e+01 </wgt>
<wgt id='1596'> +7.2873753e+01 </wgt>
<wgt id='1597'> +7.2945143e+01 </wgt>
<wgt id='1598'> +7.3320059e+01 </wgt>
<wgt id='1599'> +7.3212321e+01 </wgt>
<wgt id='1600'> +7.2185495e+01 </wgt>
<wgt id='1601'> +7.3081737e+01 </wgt>
<wgt id='1602'> +7.2395528e+01 </wgt>
<wgt id='1603'> +7.2705493e+01 </wgt>
<wgt id='1604'> +7.3658824e+01 </wgt>
<wgt id='1605'> +7.3567218e+01 </wgt>
<wgt id='1606'> +7.2809631e+01 </wgt>
<wgt id='1607'> +7.2980061e+01 </wgt>
<wgt id='1608'> +7.3815813e+01 </wgt>
<wgt id='1609'> +7.2804552e+01 </wgt>
<wgt id='1610'> +7.3217780e+01 </wgt>
<wgt id='1611'> +7.2837178e+01 </wgt>
<wgt id='1612'> +7.3059552e+01 </wgt>
<wgt id='1613'> +7.2997930e+01 </wgt>
<wgt id='1614'> +7.3817661e+01 </wgt>
<wgt id='1615'> +7.3036068e+01 </wgt>
<wgt id='1616'> +7.3394314e+01 </wgt>
<wgt id='1617'> +7.3023901e+01 </wgt>
<wgt id='1618'> +7.3754762e+01 </wgt>
<wgt id='1619'> +7.3188271e+01 </wgt>
<wgt id='1620'> +7.3698455e+01 </wgt>
<wgt id='1621'> +7.3727374e+01 </wgt>
<wgt id='1622'> +7.3210083e+01 </wgt>
<wgt id='1623'> +7.3779965e+01 </wgt>
<wgt id='1624'> +7.3389683e+01 </wgt>
<wgt id='1625'> +7.3293233e+01 </wgt>
<wgt id='1626'> +7.2847617e+01 </wgt>
<wgt id='1627'> +7.3792476e+01 </wgt>
<wgt id='1628'> +7.3623812e+01 </wgt>
<wgt id='1629'> +7.3787032e+01 </wgt>
<wgt id='1630'> +7.2775627e+01 </wgt>
<wgt id='1631'> +7.3216780e+01 </wgt>
<wgt id='1632'> +7.3311079e+01 </wgt>
<wgt id='1633'> +7.2906119e+01 </wgt>
<wgt id='1634'> +7.3848943e+01 </wgt>
<wgt id='1635'> +7.3072835e+01 </wgt>
<wgt id='1636'> +7.3557036e+01 </wgt>
<wgt id='1637'> +7.3950355e+01 </wgt>
<wgt id='1638'> +7.3126219e+01 </wgt>
<wgt id='1639'> +7.3585857e+01 </wgt>
<wgt id='1640'> +7.3276651e+01 </wgt>
<wgt id='1641'> +7.3785291e+01 </wgt>
<wgt id='1642'> +7.3508216e+01 </wgt>
<wgt id='1643'> +7.3000119e+01 </wgt>
<wgt id='1644'> +7.2971696e+01 </wgt>
<wgt id='1645'> +7.3052463e+01 </wgt>
<wgt id='1646'> +7.3079713e+01 </wgt>
<wgt id='1647'> +7.2863809e+01 </wgt>
<wgt id='1648'> +7.3939322e+01 </wgt>
<wgt id='1649'> +7.3871003e+01 </wgt>
<wgt id='1650'> +7.3154701e+01 </wgt>
<wgt id='1651'> +7.3892317e+01 </wgt>
<wgt id='1652'> +7.2401411e+01 </wgt>
<wgt id='1653'> +7.3068564e+01 </wgt>
<wgt id='1654'> +7.3313606e+01 </wgt>
<wgt id='1655'> +7.2987810e+01 </wgt>
<wgt id='1656'> +7.3139919e+01 </wgt>
<wgt id='1657'> +7.2985581e+01 </wgt>
<wgt id='1658'> +7.2894845e+01 </wgt>
<wgt id='1659'> +7.3301247e+01 </wgt>
<wgt id='1660'> +7.3175673e+01 </wgt>
<wgt id='1661'> +7.3332997e+01 </wgt>
<wgt id='1662'> +7.3120353e+01 </wgt>
<wgt id='1663'> +7.3293819e+01 </wgt>
<wgt id='1664'> +7.3328690e+01 </wgt>
<wgt id='1665'> +7.3259185e+01 </wgt>
<wgt id='1666'> +7.3359057e+01 </wgt>
<wgt id='1667'> +7.3150768e+01 </wgt>
<wgt id='1668'> +7.3112189e+01 </wgt>
<wgt id='1669'> +7.3294956e+01 </wgt>
<wgt id='1670'> +7.1722132e+01 </wgt>
<wgt id='1671'> +7.5469944e+01 </wgt>
<wgt id='1672'> +7.8451348e+01 </wgt>
<wgt id='1673'> +8.2353840e+01 </wgt>
<wgt id='1674'> +7.8264578e+01 </wgt>
<wgt id='1675'> +7.8702314e+01 </wgt>
<wgt id='1676'> +7.9637265e+01 </wgt>
<wgt id='1677'> +7.8605923e+01 </wgt>
<wgt id='1678'> +7.9628974e+01 </wgt>
<wgt id='1679'> +7.8429007e+01 </wgt>
<wgt id='1680'> +7.8187238e+01 </wgt>
<wgt id='1681'> +7.9304321e+01 </wgt>
<wgt id='1682'> +7.8524683e+01 </wgt>
<wgt id='1683'> +7.8816987e+01 </wgt>
<wgt id='1684'> +7.7559975e+01 </wgt>
<wgt id='1685'> +7.8108457e+01 </wgt>
<wgt id='1686'> +7.8297325e+01 </wgt>
<wgt id='1687'> +7.7921303e+01 </wgt>
<wgt id='1688'> +7.8483091e+01 </wgt>
<wgt id='1689'> +7.6866833e+01 </wgt>
<wgt id='1690'> +7.8216931e+01 </wgt>
<wgt id='1691'> +7.7988494e+01 </wgt>
<wgt id='1692'> +7.8685661e+01 </wgt>
<wgt id='1693'> +7.8767638e+01 </wgt>
<wgt id='1694'> +7.8592887e+01 </wgt>
<wgt id='1695'> +7.8351357e+01 </wgt>
<wgt id='1696'> +7.9369643e+01 </wgt>
<wgt id='1697'> +7.8124873e+01 </wgt>
<wgt id='1698'> +7.8716471e+01 </wgt>
<wgt id='1699'> +7.7288721e+01 </wgt>
<wgt id='1700'> +7.8361737e+01 </wgt>
<wgt id='1701'> +7.8368675e+01 </wgt>
<wgt id='1702'> +7.8416809e+01 </wgt>
<wgt id='1703'> +7.5872166e+01 </wgt>
<wgt id='1704'> +8.0653795e+01 </wgt>
<wgt id='1705'> +7.3279968e+01 </wgt>
<wgt id='1706'> +7.4672518e+01 </wgt>
<wgt id='1707'> +7.4734156e+01 </wgt>
<wgt id='1708'> +7.3217614e+01 </wgt>
<wgt id='1709'> +7.3178884e+01 </wgt>
<wgt id='1710'> +7.3475243e+01 </wgt>
<wgt id='1711'> +7.3259551e+01 </wgt>
<wgt id='1712'> +7.2855417e+01 </wgt>
<wgt id='1713'> +7.3699485e+01 </wgt>
<wgt id='1714'> +7.1885520e+01 </wgt>
<wgt id='1715'> +7.4672870e+01 </wgt>
<wgt id='1716'> +7.4012278e+01 </wgt>
<wgt id='1717'> +7.3250125e+01 </wgt>
<wgt id='1718'> +7.3410975e+01 </wgt>
<wgt id='1719'> +7.3396592e+01 </wgt>
<wgt id='1720'> +7.5873634e+01 </wgt>
<wgt id='1721'> +7.3376294e+01 </wgt>
<wgt id='1722'> +7.3028937e+01 </wgt>
<wgt id='1723'> +7.3249446e+01 </wgt>
<wgt id='1724'> +7.3256018e+01 </wgt>
<wgt id='1725'> +7.3356838e+01 </wgt>
<wgt id='1726'> +7.3198327e+01 </wgt>
<wgt id='1727'> +7.3199331e+01 </wgt>
<wgt id='1728'> +7.3262594e+01 </wgt>
<wgt id='1729'> +7.2861335e+01 </wgt>
<wgt id='1730'> +7.3472789e+01 </wgt>
<wgt id='1731'> +7.2165962e+01 </wgt>
<wgt id='1732'> +7.3358542e+01 </wgt>
<wgt id='1733'> +7.2876439e+01 </wgt>
<wgt id='1734'> +7.3400522e+01 </wgt>
<wgt id='1735'> +7.3032148e+01 </wgt>
<wgt id='1736'> +7.1722132e+01 </wgt>
<wgt id='1737'> +7.5469944e+01 </wgt>
<wgt id='1738'> +1.0899318e+02 </wgt>
<wgt id='1739'> +1.0929294e+02 </wgt>
<wgt id='1740'> +1.0869335e+02 </wgt>
<wgt id='1741'> +1.0878904e+02 </wgt>
<wgt id='1742'> +1.0919378e+02 </wgt>
<wgt id='1743'> +1.0911618e+02 </wgt>
<wgt id='1744'> +1.0886939e+02 </wgt>
<wgt id='1745'> +1.0733801e+02 </wgt>
<wgt id='1746'> +1.1063813e+02 </wgt>
<wgt id='1747'> +1.0993797e+02 </wgt>
<wgt id='1748'> +1.0805052e+02 </wgt>
<wgt id='1749'> +1.0967663e+02 </wgt>
<wgt id='1750'> +1.0819064e+02 </wgt>
<wgt id='1751'> +1.0953649e+02 </wgt>
<wgt id='1752'> +1.0843675e+02 </wgt>
<wgt id='1753'> +1.0943912e+02 </wgt>
<wgt id='1754'> +1.0894368e+02 </wgt>
<wgt id='1755'> +1.1071314e+02 </wgt>
<wgt id='1756'> +1.0702387e+02 </wgt>
<wgt id='1757'> +1.0846692e+02 </wgt>
<wgt id='1758'> +1.0964844e+02 </wgt>
<wgt id='1759'> +1.1510036e+02 </wgt>
<wgt id='1760'> +1.0315788e+02 </wgt>
<wgt id='1761'> +1.1082490e+02 </wgt>
<wgt id='1762'> +1.0678702e+02 </wgt>
<wgt id='1763'> +1.0423891e+02 </wgt>
<wgt id='1764'> +1.1415237e+02 </wgt>
<wgt id='1765'> +1.0792725e+02 </wgt>
<wgt id='1766'> +1.0839341e+02 </wgt>
<wgt id='1767'> +1.0899318e+02 </wgt>
<wgt id='1768'> +1.0789579e+02 </wgt>
<wgt id='1769'> +1.1050951e+02 </wgt>
<wgt id='1770'> +1.0772140e+02 </wgt>
<wgt id='1771'> +1.1002597e+02 </wgt>
<wgt id='1772'> +1.0833305e+02 </wgt>
<wgt id='1773'> +1.0828058e+02 </wgt>
<wgt id='1774'> +1.0858108e+02 </wgt>
<wgt id='1775'> +1.0942509e+02 </wgt>
<wgt id='1776'> +1.0737762e+02 </wgt>
<wgt id='1777'> +1.1071235e+02 </wgt>
<wgt id='1778'> +1.0911218e+02 </wgt>
<wgt id='1779'> +1.1051642e+02 </wgt>
<wgt id='1780'> +9.0608542e+01 </wgt>
<wgt id='1781'> +8.1928466e+01 </wgt>
<wgt id='1782'> +8.2048983e+01 </wgt>
<wgt id='1783'> +8.1736796e+01 </wgt>
<wgt id='1784'> +8.1861038e+01 </wgt>
<wgt id='1785'> +8.1921826e+01 </wgt>
<wgt id='1786'> +8.2041080e+01 </wgt>
<wgt id='1787'> +8.1744441e+01 </wgt>
<wgt id='1788'> +8.0651630e+01 </wgt>
<wgt id='1789'> +8.3118434e+01 </wgt>
<wgt id='1790'> +8.2442703e+01 </wgt>
<wgt id='1791'> +8.1327094e+01 </wgt>
<wgt id='1792'> +8.1910541e+01 </wgt>
<wgt id='1793'> +8.1873747e+01 </wgt>
<wgt id='1794'> +8.1798906e+01 </wgt>
<wgt id='1795'> +8.1999597e+01 </wgt>
<wgt id='1796'> +8.2159296e+01 </wgt>
<wgt id='1797'> +8.2028878e+01 </wgt>
<wgt id='1798'> +8.0076026e+01 </wgt>
<wgt id='1799'> +8.3732621e+01 </wgt>
<wgt id='1800'> +8.3643931e+01 </wgt>
<wgt id='1801'> +8.0166914e+01 </wgt>
<wgt id='1802'> +7.7602701e+01 </wgt>
<wgt id='1803'> +8.6448193e+01 </wgt>
<wgt id='1804'> +7.7446507e+01 </wgt>
<wgt id='1805'> +8.6637872e+01 </wgt>
<wgt id='1806'> +8.2052856e+01 </wgt>
<wgt id='1807'> +8.1028460e+01 </wgt>
<wgt id='1808'> +8.2293710e+01 </wgt>
<wgt id='1809'> +7.9098746e+01 </wgt>
<wgt id='1810'> +8.1742552e+01 </wgt>
<wgt id='1811'> +8.0091016e+01 </wgt>
<wgt id='1812'> +8.5174857e+01 </wgt>
<wgt id='1813'> +7.9905968e+01 </wgt>
<wgt id='1814'> +8.3367161e+01 </wgt>
<wgt id='1815'> +7.2081576e+01 </wgt>
<wgt id='1816'> +8.9184210e+01 </wgt>
<wgt id='1817'> +8.1361232e+01 </wgt>
<wgt id='1818'> +8.1831115e+01 </wgt>
<wgt id='1819'> +8.3967984e+01 </wgt>
<wgt id='1820'> +7.7300900e+01 </wgt>
<wgt id='1821'> +8.6064399e+01 </wgt>
<wgt id='1822'> +8.2406168e+01 </wgt>
<wgt id='1823'> +8.7897896e+01 </wgt>
<wgt id='1824'> +7.5363893e+01 </wgt>
<wgt id='1825'> +7.5324052e+01 </wgt>
<wgt id='1826'> +7.5284322e+01 </wgt>
<wgt id='1827'> +7.5244385e+01 </wgt>
<wgt id='1828'> +7.5204776e+01 </wgt>
<wgt id='1829'> +7.5164861e+01 </wgt>
<wgt id='1830'> +7.5125246e+01 </wgt>
<wgt id='1831'> +7.5085332e+01 </wgt>
<wgt id='1832'> +7.5045749e+01 </wgt>
<wgt id='1833'> +7.5005851e+01 </wgt>
<wgt id='1834'> +7.4966297e+01 </wgt>
<wgt id='1835'> +7.4926500e+01 </wgt>
<wgt id='1836'> +7.4886778e+01 </wgt>
<wgt id='1837'> +7.4847105e+01 </wgt>
<wgt id='1838'> +7.4807416e+01 </wgt>
<wgt id='1839'> +7.4767661e+01 </wgt>
<wgt id='1840'> +7.4728029e+01 </wgt>
<wgt id='1841'> +7.4688429e+01 </wgt>
<wgt id='1842'> +7.4648785e+01 </wgt>
<wgt id='1843'> +7.4609068e+01 </wgt>
<wgt id='1844'> +7.4569440e+01 </wgt>
<wgt id='1845'> +7.4529835e+01 </wgt>
<wgt id='1846'> +7.4490103e+01 </wgt>
<wgt id='1847'> +7.4450645e+01 </wgt>
<wgt id='1848'> +7.4411018e+01 </wgt>
<wgt id='1849'> +7.4371406e+01 </wgt>
<wgt id='1850'> +7.4331581e+01 </wgt>
<wgt id='1851'> +7.4292020e+01 </wgt>
<wgt id='1852'> +7.4252271e+01 </wgt>
<wgt id='1853'> +7.4212996e+01 </wgt>
<wgt id='1854'> +7.4173197e+01 </wgt>
<wgt id='1855'> +7.2615894e+01 </wgt>
<wgt id='1856'> +7.3296720e+01 </wgt>
<wgt id='1857'> +7.2398498e+01 </wgt>
<wgt id='1858'> +7.3022388e+01 </wgt>
<wgt id='1859'> +7.3215212e+01 </wgt>
<wgt id='1860'> +7.2286720e+01 </wgt>
<wgt id='1861'> +7.2800601e+01 </wgt>
<wgt id='1862'> +7.3453567e+01 </wgt>
<wgt id='1863'> +7.2922610e+01 </wgt>
<wgt id='1864'> +7.2168499e+01 </wgt>
<wgt id='1865'> +7.2526435e+01 </wgt>
<wgt id='1866'> +7.2399519e+01 </wgt>
<wgt id='1867'> +7.1963744e+01 </wgt>
<wgt id='1868'> +7.1921962e+01 </wgt>
<wgt id='1869'> +7.2695437e+01 </wgt>
<wgt id='1870'> +7.4628310e+01 </wgt>
<wgt id='1871'> +7.2010644e+01 </wgt>
<wgt id='1872'> +7.2682204e+01 </wgt>
<wgt id='1873'> +7.3368654e+01 </wgt>
<wgt id='1874'> +7.1634464e+01 </wgt>
<wgt id='1875'> +7.1725435e+01 </wgt>
<wgt id='1876'> +7.3104540e+01 </wgt>
<wgt id='1877'> +7.2005164e+01 </wgt>
<wgt id='1878'> +7.2554275e+01 </wgt>
<wgt id='1879'> +7.3118430e+01 </wgt>
<wgt id='1880'> +7.3066821e+01 </wgt>
<wgt id='1881'> +7.2748007e+01 </wgt>
<wgt id='1882'> +7.2224738e+01 </wgt>
<wgt id='1883'> +7.2300089e+01 </wgt>
<wgt id='1884'> +7.2679633e+01 </wgt>
<wgt id='1885'> +7.2569639e+01 </wgt>
<wgt id='1886'> +7.1540044e+01 </wgt>
<wgt id='1887'> +7.2436901e+01 </wgt>
<wgt id='1888'> +7.1758743e+01 </wgt>
<wgt id='1889'> +7.2065999e+01 </wgt>
<wgt id='1890'> +7.3011092e+01 </wgt>
<wgt id='1891'> +7.2918052e+01 </wgt>
<wgt id='1892'> +7.2165846e+01 </wgt>
<wgt id='1893'> +7.2336866e+01 </wgt>
<wgt id='1894'> +7.3167922e+01 </wgt>
<wgt id='1895'> +7.2163064e+01 </wgt>
<wgt id='1896'> +7.2576197e+01 </wgt>
<wgt id='1897'> +7.2199519e+01 </wgt>
<wgt id='1898'> +7.2409623e+01 </wgt>
<wgt id='1899'> +7.2353958e+01 </wgt>
<wgt id='1900'> +7.3169983e+01 </wgt>
<wgt id='1901'> +7.2388150e+01 </wgt>
<wgt id='1902'> +7.2750589e+01 </wgt>
<wgt id='1903'> +7.2378301e+01 </wgt>
<wgt id='1904'> +7.3108026e+01 </wgt>
<wgt id='1905'> +7.2540840e+01 </wgt>
<wgt id='1906'> +7.3048125e+01 </wgt>
<wgt id='1907'> +7.3078159e+01 </wgt>
<wgt id='1908'> +7.2560723e+01 </wgt>
<wgt id='1909'> +7.3129305e+01 </wgt>
<wgt id='1910'> +7.2742299e+01 </wgt>
<wgt id='1911'> +7.2650883e+01 </wgt>
<wgt id='1912'> +7.2206010e+01 </wgt>
<wgt id='1913'> +7.3139475e+01 </wgt>
<wgt id='1914'> +7.2971944e+01 </wgt>
<wgt id='1915'> +7.3132429e+01 </wgt>
<wgt id='1916'> +7.2134510e+01 </wgt>
<wgt id='1917'> +7.2571073e+01 </wgt>
<wgt id='1918'> +7.2664449e+01 </wgt>
<wgt id='1919'> +7.2264520e+01 </wgt>
<wgt id='1920'> +7.3195353e+01 </wgt>
<wgt id='1921'> +7.2429592e+01 </wgt>
<wgt id='1922'> +7.2909650e+01 </wgt>
<wgt id='1923'> +7.3296654e+01 </wgt>
<wgt id='1924'> +7.2482780e+01 </wgt>
<wgt id='1925'> +7.2938268e+01 </wgt>
<wgt id='1926'> +7.2627419e+01 </wgt>
<wgt id='1927'> +7.3133801e+01 </wgt>
<wgt id='1928'> +7.2863042e+01 </wgt>
<wgt id='1929'> +7.2356053e+01 </wgt>
<wgt id='1930'> +7.2326322e+01 </wgt>
<wgt id='1931'> +7.2405735e+01 </wgt>
<wgt id='1932'> +7.2436034e+01 </wgt>
<wgt id='1933'> +7.2216329e+01 </wgt>
<wgt id='1934'> +7.3290274e+01 </wgt>
<wgt id='1935'> +7.3221667e+01 </wgt>
<wgt id='1936'> +7.2508709e+01 </wgt>
<wgt id='1937'> +7.3243425e+01 </wgt>
<wgt id='1938'> +7.1763578e+01 </wgt>
<wgt id='1939'> +7.2426132e+01 </wgt>
<wgt id='1940'> +7.2665710e+01 </wgt>
<wgt id='1941'> +7.2344082e+01 </wgt>
<wgt id='1942'> +7.2494420e+01 </wgt>
<wgt id='1943'> +7.2341096e+01 </wgt>
<wgt id='1944'> +7.2251549e+01 </wgt>
<wgt id='1945'> +7.2654485e+01 </wgt>
<wgt id='1946'> +7.2531490e+01 </wgt>
<wgt id='1947'> +7.2687892e+01 </wgt>
<wgt id='1948'> +7.2473618e+01 </wgt>
<wgt id='1949'> +7.2651195e+01 </wgt>
<wgt id='1950'> +7.2682794e+01 </wgt>
<wgt id='1951'> +7.2610451e+01 </wgt>
<wgt id='1952'> +7.2714204e+01 </wgt>
<wgt id='1953'> +7.2507501e+01 </wgt>
<wgt id='1954'> +7.2468258e+01 </wgt>
<wgt id='1955'> +7.2648910e+01 </wgt>
<wgt id='1956'> +7.2615419e+01 </wgt>
<wgt id='1957'> +7.2618605e+01 </wgt>
<wgt id='1958'> +7.2616431e+01 </wgt>
<wgt id='1959'> +7.2616506e+01 </wgt>
<wgt id='1960'> +7.2617433e+01 </wgt>
<wgt id='1961'> +7.2616120e+01 </wgt>
<wgt id='1962'> +7.2619255e+01 </wgt>
</rwgt>
</event>
<event npLO=" -1 " npNLO=" 1 ">
 7      1 +1.5146096e+02 1.47542850e+01 7.54677110e-03 1.50191790e-01
       21 -1    0    0  501  502 +0.0000000000e+00 +0.0000000000e+00 +2.5047949000e+02 2.5047949000e+02 0.0000000000e+00 0.0000e+00 9.0000e+00
        1 -1    0    0  502    0 +0.0000000000e+00 +0.0000000000e+00 -1.7259621000e+01 1.7259621000e+01 0.0000000000e+00 0.0000e+00 9.0000e+00
       23  2    1    2    0    0 +1.4550980000e+01 +2.4408794000e+00 +1.0943722000e+02 1.4308025000e+02 9.0982209000e+01 0.0000e+00 0.0000e+00
       11  1    3    3    0    0 +1.8497551000e+01 -3.4254982000e-01 +5.9602658000e+01 6.2407961000e+01 0.0000000000e+00 0.0000e+00 9.0000e+00
      -11  1    3    3    0    0 -2.2559828000e+01 +2.6861476000e+00 -4.5677489000e+00 2.3173812000e+01 0.0000000000e+00 0.0000e+00 9.0000e+00
       22  1    3    3    0    0 +1.8613257000e+01 +9.7281645000e-02 +5.4402314000e+01 5.7498474000e+01 0.0000000000e+00 0.0000e+00 9.0000e+00
        1  1    1    2  501    0 -1.4550980000e+01 -2.4408794000e+00 +1.2378264000e+02 1.2465886000e+02 0.0000000000e+00 0.0000e+00 9.0000e+00
#aMCatNLO 1  0  0  1  2 0.23110337E+02 0.00000000E+00 -9  7  0 0.00000000E+00 0.00000000E+00 0.00000000E+00 0.00000000E+00 0.00000000E+00
<rwgt>
<wgt id='1001'> +1.5146000e+02 </wgt>
<wgt id='1002'> +1.5146000e+02 </wgt>
<wgt id='1003'> +1.3107000e+02 </wgt>
<wgt id='1004'> +1.5018000e+02 </wgt>
<wgt id='1005'> +1.5140000e+02 </wgt>
<wgt id='1006'> +1.5482000e+02 </wgt>
<wgt id='1007'> +1.1618000e+02 </wgt>
<wgt id='1008'> +1.4993000e+02 </wgt>
<wgt id='1009'> +1.5291000e+02 </wgt>
<wgt id='1010'> +1.5915000e+02 </wgt>
<wgt id='1011'> +1.5159000e+02 </wgt>
<wgt id='1012'> +1.3595000e+02 </wgt>
<wgt id='1013'> +1.3671000e+02 </wgt>
<wgt id='1014'> +1.5494000e+02 </wgt>
<wgt id='1015'> +1.6011000e+02 </wgt>
<wgt id='1016'> +1.4169000e+02 </wgt>
<wgt id='1017'> +1.5269000e+02 </wgt>
<wgt id='1018'> +1.5186000e+02 </wgt>
<wgt id='1019'> +1.4622000e+02 </wgt>
<wgt id='1020'> +1.4777000e+02 </wgt>
<wgt id='1021'> +1.5892000e+02 </wgt>
<wgt id='1022'> +1.5675000e+02 </wgt>
<wgt id='1023'> +1.5484000e+02 </wgt>
<wgt id='1024'> +1.4827000e+02 </wgt>
<wgt id='1025'> +1.6648000e+02 </wgt>
<wgt id='1026'> +1.5031000e+02 </wgt>
<wgt id='1027'> +1.5642000e+02 </wgt>
<wgt id='1028'> +1.4895000e+02 </wgt>
<wgt id='1029'> +1.5026000e+02 </wgt>
<wgt id='1030'> +1.4906000e+02 </wgt>
<wgt id='1031'> +1.4871000e+02 </wgt>
<wgt id='1032'> +1.5641000e+02 </wgt>
<wgt id='1033'> +1.5604000e+02 </wgt>
<wgt id='1034'> +1.3917000e+02 </wgt>
<wgt id='1035'> +1.5412000e+02 </wgt>
<wgt id='1036'> +1.5014000e+02 </wgt>
<wgt id='1037'> +1.5788000e+02 </wgt>
<wgt id='1038'> +1.6064000e+02 </wgt>
<wgt id='1039'> +1.5581000e+02 </wgt>
<wgt id='1040'> +1.5469000e+02 </wgt>
<wgt id='1041'> +1.4972000e+02 </wgt>
<wgt id='1042'> +1.5762000e+02 </wgt>
<wgt id='1043'> +1.5712000e+02 </wgt>
<wgt id='1044'> +1.5284000e+02 </wgt>
<wgt id='1045'> +1.5424000e+02 </wgt>
<wgt id='1046'> +1.4812000e+02 </wgt>
<wgt id='1047'> +1.4803000e+02 </wgt>
<wgt id='1048'> +1.5589000e+02 </wgt>
<wgt id='1049'> +1.4969000e+02 </wgt>
<wgt id='1050'> +1.4916000e+02 </wgt>
<wgt id='1051'> +1.4915000e+02 </wgt>
<wgt id='1052'> +1.5442000e+02 </wgt>
<wgt id='1053'> +1.5310000e+02 </wgt>
<wgt id='1054'> +1.4655000e+02 </wgt>
<wgt id='1055'> +1.4558000e+02 </wgt>
<wgt id='1056'> +1.5592000e+02 </wgt>
<wgt id='1057'> +1.5179000e+02 </wgt>
<wgt id='1058'> +1.4576000e+02 </wgt>
<wgt id='1059'> +1.6607000e+02 </wgt>
<wgt id='1060'> +1.4995000e+02 </wgt>
<wgt id='1061'> +1.5384000e+02 </wgt>
<wgt id='1062'> +1.5442000e+02 </wgt>
<wgt id='1063'> +1.5463000e+02 </wgt>
<wgt id='1064'> +1.5008000e+02 </wgt>
<wgt id='1065'> +1.5153000e+02 </wgt>
<wgt id='1066'> +1.4522000e+02 </wgt>
<wgt id='1067'> +1.5698000e+02 </wgt>
<wgt id='1068'> +1.5267000e+02 </wgt>
<wgt id='1069'> +1.6047000e+02 </wgt>
<wgt id='1070'> +1.4973000e+02 </wgt>
<wgt id='1071'> +1.4713000e+02 </wgt>
<wgt id='1072'> +1.5235000e+02 </wgt>
<wgt id='1073'> +1.5485000e+02 </wgt>
<wgt id='1074'> +1.4660000e+02 </wgt>
<wgt id='1075'> +1.3136000e+02 </wgt>
<wgt id='1076'> +1.4773000e+02 </wgt>
<wgt id='1077'> +1.5393000e+02 </wgt>
<wgt id='1078'> +1.4172000e+02 </wgt>
<wgt id='1079'> +1.4982000e+02 </wgt>
<wgt id='1080'> +1.6050000e+02 </wgt>
<wgt id='1081'> +1.4894000e+02 </wgt>
<wgt id='1082'> +1.5562000e+02 </wgt>
<wgt id='1083'> +1.5360000e+02 </wgt>
<wgt id='1084'> +1.5236000e+02 </wgt>
<wgt id='1085'> +1.5521000e+02 </wgt>
<wgt id='1086'> +1.5453000e+02 </wgt>
<wgt id='1087'> +1.4568000e+02 </wgt>
<wgt id='1088'> +1.5047000e+02 </wgt>
<wgt id='1089'> +1.4724000e+02 </wgt>
<wgt id='1090'> +1.5386000e+02 </wgt>
<wgt id='1091'> +1.5636000e+02 </wgt>
<wgt id='1092'> +1.5091000e+02 </wgt>
<wgt id='1093'> +1.5643000e+02 </wgt>
<wgt id='1094'> +1.5398000e+02 </wgt>
<wgt id='1095'> +1.5198000e+02 </wgt>
<wgt id='1096'> +1.5042000e+02 </wgt>
<wgt id='1097'> +1.4783000e+02 </wgt>
<wgt id='1098'> +1.5550000e+02 </wgt>
<wgt id='1099'> +1.5532000e+02 </wgt>
<wgt id='1100'> +1.6219000e+02 </wgt>
<wgt id='1101'> +1.6191000e+02 </wgt>
<wgt id='1102'> +1.5476000e+02 </wgt>
<wgt id='1103'> +1.4991000e+02 </wgt>
<wgt id='1104'> +1.5366000e+02 </wgt>
<wgt id='1105'> +1.5146096e+02 </wgt>
<wgt id='1106'> +6.5322894e+01 </wgt>
<wgt id='1107'> +9.0192168e+01 </wgt>
<wgt id='1108'> +1.0397062e+02 </wgt>
<wgt id='1109'> +8.7320268e+01 </wgt>
<wgt id='1110'> +1.2809998e+02 </wgt>
<wgt id='1111'> +4.9970571e+01 </wgt>
<wgt id='1112'> +4.5072633e+01 </wgt>
<wgt id='1113'> +5.5948228e+01 </wgt>
<wgt id='1114'> +8.0888374e+01 </wgt>
<wgt id='1115'> +7.9401913e+01 </wgt>
<wgt id='1116'> +8.2036625e+01 </wgt>
<wgt id='1117'> +8.6237562e+01 </wgt>
<wgt id='1118'> +8.0844308e+01 </wgt>
<wgt id='1119'> +8.1220753e+01 </wgt>
<wgt id='1120'> +8.2203241e+01 </wgt>
<wgt id='1121'> +8.0088744e+01 </wgt>
<wgt id='1122'> +7.6487491e+01 </wgt>
<wgt id='1123'> +8.3766177e+01 </wgt>
<wgt id='1124'> +8.3950427e+01 </wgt>
<wgt id='1125'> +8.4460202e+01 </wgt>
<wgt id='1126'> +7.8475638e+01 </wgt>
<wgt id='1127'> +7.9912612e+01 </wgt>
<wgt id='1128'> +7.6686187e+01 </wgt>
<wgt id='1129'> +8.6334100e+01 </wgt>
<wgt id='1130'> +8.4862848e+01 </wgt>
<wgt id='1131'> +8.4336811e+01 </wgt>
<wgt id='1132'> +8.0706165e+01 </wgt>
<wgt id='1133'> +8.0055116e+01 </wgt>
<wgt id='1134'> +8.0133778e+01 </wgt>
<wgt id='1135'> +7.7465448e+01 </wgt>
<wgt id='1136'> +8.0433947e+01 </wgt>
<wgt id='1137'> +8.0325219e+01 </wgt>
<wgt id='1138'> +7.6980166e+01 </wgt>
<wgt id='1139'> +7.8005835e+01 </wgt>
<wgt id='1140'> +7.9420567e+01 </wgt>
<wgt id='1141'> +8.4925429e+01 </wgt>
<wgt id='1142'> +8.1650284e+01 </wgt>
<wgt id='1143'> +8.2323472e+01 </wgt>
<wgt id='1144'> +8.6105222e+01 </wgt>
<wgt id='1145'> +8.1702588e+01 </wgt>
<wgt id='1146'> +8.1196515e+01 </wgt>
<wgt id='1147'> +8.0669806e+01 </wgt>
<wgt id='1148'> +7.5970825e+01 </wgt>
<wgt id='1149'> +8.4684811e+01 </wgt>
<wgt id='1150'> +7.8389407e+01 </wgt>
<wgt id='1151'> +8.3513672e+01 </wgt>
<wgt id='1152'> +8.1250593e+01 </wgt>
<wgt id='1153'> +8.1384785e+01 </wgt>
<wgt id='1154'> +7.8669951e+01 </wgt>
<wgt id='1155'> +8.0789439e+01 </wgt>
<wgt id='1156'> +7.7539156e+01 </wgt>
<wgt id='1157'> +8.1531187e+01 </wgt>
<wgt id='1158'> +7.9199621e+01 </wgt>
<wgt id='1159'> +7.9477468e+01 </wgt>
<wgt id='1160'> +8.1750918e+01 </wgt>
<wgt id='1161'> +8.0156601e+01 </wgt>
<wgt id='1162'> +7.4432841e+01 </wgt>
<wgt id='1163'> +8.6988672e+01 </wgt>
<wgt id='1164'> +8.5802816e+01 </wgt>
<wgt id='1165'> +7.9328521e+01 </wgt>
<wgt id='1166'> +7.8008268e+01 </wgt>
<wgt id='1167'> +8.2067623e+01 </wgt>
<wgt id='1168'> +8.3621664e+01 </wgt>
<wgt id='1169'> +7.4285300e+01 </wgt>
<wgt id='1170'> +8.0046448e+01 </wgt>
<wgt id='1171'> +8.1916388e+01 </wgt>
<wgt id='1172'> +7.7244612e+01 </wgt>
<wgt id='1173'> +8.4428990e+01 </wgt>
<wgt id='1174'> +7.9663741e+01 </wgt>
<wgt id='1175'> +8.3844458e+01 </wgt>
<wgt id='1176'> +8.0636961e+01 </wgt>
<wgt id='1177'> +7.8290687e+01 </wgt>
<wgt id='1178'> +7.6893833e+01 </wgt>
<wgt id='1179'> +8.0842547e+01 </wgt>
<wgt id='1180'> +7.9556813e+01 </wgt>
<wgt id='1181'> +7.8567303e+01 </wgt>
<wgt id='1182'> +8.4043336e+01 </wgt>
<wgt id='1183'> +7.8738100e+01 </wgt>
<wgt id='1184'> +7.6391243e+01 </wgt>
<wgt id='1185'> +8.4601302e+01 </wgt>
<wgt id='1186'> +8.7704608e+01 </wgt>
<wgt id='1187'> +8.0676894e+01 </wgt>
<wgt id='1188'> +8.4770206e+01 </wgt>
<wgt id='1189'> +8.2239312e+01 </wgt>
<wgt id='1190'> +8.1483711e+01 </wgt>
<wgt id='1191'> +7.7819555e+01 </wgt>
<wgt id='1192'> +8.4909425e+01 </wgt>
<wgt id='1193'> +8.0909237e+01 </wgt>
<wgt id='1194'> +7.9126734e+01 </wgt>
<wgt id='1195'> +7.6512259e+01 </wgt>
<wgt id='1196'> +8.4862848e+01 </wgt>
<wgt id='1197'> +7.9933274e+01 </wgt>
<wgt id='1198'> +8.0884048e+01 </wgt>
<wgt id='1199'> +9.1220480e+01 </wgt>
<wgt id='1200'> +7.7880682e+01 </wgt>
<wgt id='1201'> +8.4365959e+01 </wgt>
<wgt id='1202'> +8.2938668e+01 </wgt>
<wgt id='1203'> +8.0514595e+01 </wgt>
<wgt id='1204'> +7.6644308e+01 </wgt>
<wgt id='1205'> +7.7424728e+01 </wgt>
<wgt id='1206'> +8.0853810e+01 </wgt>
<wgt id='1207'> +8.2441711e+01 </wgt>
<wgt id='1208'> +8.1385388e+01 </wgt>
<wgt id='1209'> +7.7186816e+01 </wgt>
<wgt id='1210'> +7.9887924e+01 </wgt>
<wgt id='1211'> +7.6609675e+01 </wgt>
<wgt id='1212'> +8.0580195e+01 </wgt>
<wgt id='1213'> +7.9282103e+01 </wgt>
<wgt id='1214'> +7.9862642e+01 </wgt>
<wgt id='1215'> +7.8341920e+01 </wgt>
<wgt id='1216'> +8.0581243e+01 </wgt>
<wgt id='1217'> +8.0818474e+01 </wgt>
<wgt id='1218'> +8.0550869e+01 </wgt>
<wgt id='1219'> +8.0853907e+01 </wgt>
<wgt id='1220'> +8.1075571e+01 </wgt>
<wgt id='1221'> +8.1272051e+01 </wgt>
<wgt id='1222'> +8.0474313e+01 </wgt>
<wgt id='1223'> +8.1257087e+01 </wgt>
<wgt id='1224'> +8.0532641e+01 </wgt>
<wgt id='1225'> +8.0990591e+01 </wgt>
<wgt id='1226'> +7.9852134e+01 </wgt>
<wgt id='1227'> +8.0468105e+01 </wgt>
<wgt id='1228'> +8.1423540e+01 </wgt>
<wgt id='1229'> +8.0251977e+01 </wgt>
<wgt id='1230'> +8.1121279e+01 </wgt>
<wgt id='1231'> +8.0400454e+01 </wgt>
<wgt id='1232'> +8.1195587e+01 </wgt>
<wgt id='1233'> +8.1066534e+01 </wgt>
<wgt id='1234'> +8.1224450e+01 </wgt>
<wgt id='1235'> +7.9741744e+01 </wgt>
<wgt id='1236'> +7.9828818e+01 </wgt>
<wgt id='1237'> +7.9754047e+01 </wgt>
<wgt id='1238'> +8.0395991e+01 </wgt>
<wgt id='1239'> +7.9579619e+01 </wgt>
<wgt id='1240'> +8.0301161e+01 </wgt>
<wgt id='1241'> +8.0461897e+01 </wgt>
<wgt id='1242'> +8.1207714e+01 </wgt>
<wgt id='1243'> +8.0568888e+01 </wgt>
<wgt id='1244'> +7.9991679e+01 </wgt>
<wgt id='1245'> +8.0986258e+01 </wgt>
<wgt id='1246'> +8.0390507e+01 </wgt>
<wgt id='1247'> +8.0441583e+01 </wgt>
<wgt id='1248'> +8.0730720e+01 </wgt>
<wgt id='1249'> +8.0275844e+01 </wgt>
<wgt id='1250'> +8.0869799e+01 </wgt>
<wgt id='1251'> +8.0077254e+01 </wgt>
<wgt id='1252'> +8.0377598e+01 </wgt>
<wgt id='1253'> +8.0697166e+01 </wgt>
<wgt id='1254'> +8.0627380e+01 </wgt>
<wgt id='1255'> +8.0414470e+01 </wgt>
<wgt id='1256'> +8.0757243e+01 </wgt>
<wgt id='1257'> +8.0510518e+01 </wgt>
<wgt id='1258'> +8.0388728e+01 </wgt>
<wgt id='1259'> +8.0690154e+01 </wgt>
<wgt id='1260'> +8.0642289e+01 </wgt>
<wgt id='1261'> +8.0724945e+01 </wgt>
<wgt id='1262'> +8.0450243e+01 </wgt>
<wgt id='1263'> +8.0490506e+01 </wgt>
<wgt id='1264'> +8.0697216e+01 </wgt>
<wgt id='1265'> +8.0393385e+01 </wgt>
<wgt id='1266'> +8.0736038e+01 </wgt>
<wgt id='1267'> +8.0695327e+01 </wgt>
<wgt id='1268'> +8.0595848e+01 </wgt>
<wgt id='1269'> +8.0550809e+01 </wgt>
<wgt id='1270'> +8.0470209e+01 </wgt>
<wgt id='1271'> +8.0815753e+01 </wgt>
<wgt id='1272'> +8.0612607e+01 </wgt>
<wgt id='1273'> +8.0572086e+01 </wgt>
<wgt id='1274'> +8.0694122e+01 </wgt>
<wgt id='1275'> +8.0502078e+01 </wgt>
<wgt id='1276'> +8.0579229e+01 </wgt>
<wgt id='1277'> +8.0620822e+01 </wgt>
<wgt id='1278'> +8.0516579e+01 </wgt>
<wgt id='1279'> +8.0483784e+01 </wgt>
<wgt id='1280'> +8.0633999e+01 </wgt>
<wgt id='1281'> +8.0694255e+01 </wgt>
<wgt id='1282'> +8.0480461e+01 </wgt>
<wgt id='1283'> +8.0623426e+01 </wgt>
<wgt id='1284'> +8.0534118e+01 </wgt>
<wgt id='1285'> +8.0458994e+01 </wgt>
<wgt id='1286'> +8.0506529e+01 </wgt>
<wgt id='1287'> +8.0623184e+01 </wgt>
<wgt id='1288'> +8.0582702e+01 </wgt>
<wgt id='1289'> +8.0662440e+01 </wgt>
<wgt id='1290'> +8.0590564e+01 </wgt>
<wgt id='1291'> +8.0681519e+01 </wgt>
<wgt id='1292'> +8.0611791e+01 </wgt>
<wgt id='1293'> +8.0514254e+01 </wgt>
<wgt id='1294'> +8.0608049e+01 </wgt>
<wgt id='1295'> +8.0521876e+01 </wgt>
<wgt id='1296'> +8.0511844e+01 </wgt>
<wgt id='1297'> +8.0560704e+01 </wgt>
<wgt id='1298'> +8.0568610e+01 </wgt>
<wgt id='1299'> +8.0589993e+01 </wgt>
<wgt id='1300'> +8.0528124e+01 </wgt>
<wgt id='1301'> +8.0606367e+01 </wgt>
<wgt id='1302'> +8.0667322e+01 </wgt>
<wgt id='1303'> +8.0595594e+01 </wgt>
<wgt id='1304'> +8.0555735e+01 </wgt>
<wgt id='1305'> +8.0600674e+01 </wgt>
<wgt id='1306'> +8.0599152e+01 </wgt>
<wgt id='1307'> +8.0539482e+01 </wgt>
<wgt id='1308'> +8.0503067e+01 </wgt>
<wgt id='1309'> +8.0605712e+01 </wgt>
<wgt id='1310'> +8.0559720e+01 </wgt>
<wgt id='1311'> +8.0567709e+01 </wgt>
<wgt id='1312'> +8.0543752e+01 </wgt>
<wgt id='1313'> +8.0597362e+01 </wgt>
<wgt id='1314'> +8.0535333e+01 </wgt>
<wgt id='1315'> +8.0565364e+01 </wgt>
<wgt id='1316'> +8.0597128e+01 </wgt>
<wgt id='1317'> +7.8787737e+01 </wgt>
<wgt id='1318'> +8.2977135e+01 </wgt>
<wgt id='1319'> +8.5786344e+01 </wgt>
<wgt id='1320'> +7.3117169e+01 </wgt>
<wgt id='1321'> +7.3749280e+01 </wgt>
<wgt id='1322'> +7.1889776e+01 </wgt>
<wgt id='1323'> +7.6982142e+01 </wgt>
<wgt id='1324'> +7.1913619e+01 </wgt>
<wgt id='1325'> +7.4129533e+01 </wgt>
<wgt id='1326'> +7.2378870e+01 </wgt>
<wgt id='1327'> +7.6511664e+01 </wgt>
<wgt id='1328'> +7.1692124e+01 </wgt>
<wgt id='1329'> +7.1494125e+01 </wgt>
<wgt id='1330'> +7.3346550e+01 </wgt>
<wgt id='1331'> +7.4215853e+01 </wgt>
<wgt id='1332'> +7.2635912e+01 </wgt>
<wgt id='1333'> +6.9076186e+01 </wgt>
<wgt id='1334'> +7.5221424e+01 </wgt>
<wgt id='1335'> +7.4899542e+01 </wgt>
<wgt id='1336'> +7.1470090e+01 </wgt>
<wgt id='1337'> +7.3297557e+01 </wgt>
<wgt id='1338'> +7.2954192e+01 </wgt>
<wgt id='1339'> +7.4537944e+01 </wgt>
<wgt id='1340'> +7.1542213e+01 </wgt>
<wgt id='1341'> +7.3681370e+01 </wgt>
<wgt id='1342'> +7.1990456e+01 </wgt>
<wgt id='1343'> +7.3455375e+01 </wgt>
<wgt id='1344'> +7.2636716e+01 </wgt>
<wgt id='1345'> +7.3116212e+01 </wgt>
<wgt id='1346'> +7.3238852e+01 </wgt>
<wgt id='1347'> +7.2623973e+01 </wgt>
<wgt id='1348'> +7.3728013e+01 </wgt>
<wgt id='1349'> +7.1599877e+01 </wgt>
<wgt id='1350'> +7.3635158e+01 </wgt>
<wgt id='1351'> +7.2961576e+01 </wgt>
<wgt id='1352'> +7.3306560e+01 </wgt>
<wgt id='1353'> +7.2373292e+01 </wgt>
<wgt id='1354'> +7.4693722e+01 </wgt>
<wgt id='1355'> +7.5690377e+01 </wgt>
<wgt id='1356'> +7.0646627e+01 </wgt>
<wgt id='1357'> +7.4152644e+01 </wgt>
<wgt id='1358'> +7.1363218e+01 </wgt>
<wgt id='1359'> +7.3191151e+01 </wgt>
<wgt id='1360'> +7.2786639e+01 </wgt>
<wgt id='1361'> +7.3503872e+01 </wgt>
<wgt id='1362'> +7.2744354e+01 </wgt>
<wgt id='1363'> +7.5336418e+01 </wgt>
<wgt id='1364'> +7.1201180e+01 </wgt>
<wgt id='1365'> +7.1147867e+01 </wgt>
<wgt id='1366'> +7.3088026e+01 </wgt>
<wgt id='1367'> +7.0861576e+01 </wgt>
<wgt id='1368'> +7.4819766e+01 </wgt>
<wgt id='1369'> +7.3165473e+01 </wgt>
<wgt id='1370'> +7.1710649e+01 </wgt>
<wgt id='1371'> +7.2776705e+01 </wgt>
<wgt id='1372'> +7.2417156e+01 </wgt>
<wgt id='1373'> +7.2274677e+01 </wgt>
<wgt id='1374'> +7.3581069e+01 </wgt>
<wgt id='1375'> +7.1874861e+01 </wgt>
<wgt id='1376'> +7.4654517e+01 </wgt>
<wgt id='1377'> +7.0835506e+01 </wgt>
<wgt id='1378'> +7.5152649e+01 </wgt>
<wgt id='1379'> +7.4796772e+01 </wgt>
<wgt id='1380'> +7.2498454e+01 </wgt>
<wgt id='1381'> +7.6756959e+01 </wgt>
<wgt id='1382'> +6.0330035e+01 </wgt>
<wgt id='1383'> +7.5927408e+01 </wgt>
<wgt id='1384'> +7.7377997e+01 </wgt>
<wgt id='1385'> +9.1440052e+01 </wgt>
<wgt id='1386'> +9.1489368e+01 </wgt>
<wgt id='1387'> +9.1391268e+01 </wgt>
<wgt id='1388'> +9.0463435e+01 </wgt>
<wgt id='1389'> +9.3135970e+01 </wgt>
<wgt id='1390'> +9.1507318e+01 </wgt>
<wgt id='1391'> +9.1377098e+01 </wgt>
<wgt id='1392'> +9.1448131e+01 </wgt>
<wgt id='1393'> +9.1443617e+01 </wgt>
<wgt id='1394'> +9.0991767e+01 </wgt>
<wgt id='1395'> +9.2001584e+01 </wgt>
<wgt id='1396'> +9.0428278e+01 </wgt>
<wgt id='1397'> +9.1967476e+01 </wgt>
<wgt id='1398'> +9.1520816e+01 </wgt>
<wgt id='1399'> +9.1364829e+01 </wgt>
<wgt id='1400'> +9.1297328e+01 </wgt>
<wgt id='1401'> +9.1523204e+01 </wgt>
<wgt id='1402'> +9.1331282e+01 </wgt>
<wgt id='1403'> +9.1487161e+01 </wgt>
<wgt id='1404'> +9.1908647e+01 </wgt>
<wgt id='1405'> +9.1216009e+01 </wgt>
<wgt id='1406'> +9.1038942e+01 </wgt>
<wgt id='1407'> +9.2146948e+01 </wgt>
<wgt id='1408'> +9.1125153e+01 </wgt>
<wgt id='1409'> +9.2081414e+01 </wgt>
<wgt id='1410'> +9.1295972e+01 </wgt>
<wgt id='1411'> +9.1626496e+01 </wgt>
<wgt id='1412'> +9.2592699e+01 </wgt>
<wgt id='1413'> +8.9880205e+01 </wgt>
<wgt id='1414'> +9.1937797e+01 </wgt>
<wgt id='1415'> +9.1103237e+01 </wgt>
<wgt id='1416'> +9.1262458e+01 </wgt>
<wgt id='1417'> +9.1558563e+01 </wgt>
<wgt id='1418'> +9.1551606e+01 </wgt>
<wgt id='1419'> +9.1107100e+01 </wgt>
<wgt id='1420'> +9.0408160e+01 </wgt>
<wgt id='1421'> +9.1708321e+01 </wgt>
<wgt id='1422'> +9.1833760e+01 </wgt>
<wgt id='1423'> +9.1005691e+01 </wgt>
<wgt id='1424'> +9.1998647e+01 </wgt>
<wgt id='1425'> +9.0193169e+01 </wgt>
<wgt id='1426'> +9.2147187e+01 </wgt>
<wgt id='1427'> +9.1556886e+01 </wgt>
<wgt id='1428'> +9.1456018e+01 </wgt>
<wgt id='1429'> +9.1178088e+01 </wgt>
<wgt id='1430'> +9.1968378e+01 </wgt>
<wgt id='1431'> +9.1885480e+01 </wgt>
<wgt id='1432'> +9.1890349e+01 </wgt>
<wgt id='1433'> +9.2126904e+01 </wgt>
<wgt id='1434'> +9.1533376e+01 </wgt>
<wgt id='1435'> +9.1618531e+01 </wgt>
<wgt id='1436'> +7.8966686e+01 </wgt>
<wgt id='1437'> +7.8932414e+01 </wgt>
<wgt id='1438'> +7.9049778e+01 </wgt>
<wgt id='1439'> +7.8964889e+01 </wgt>
<wgt id='1440'> +7.9065783e+01 </wgt>
<wgt id='1441'> +7.9356342e+01 </wgt>
<wgt id='1442'> +7.8642620e+01 </wgt>
<wgt id='1443'> +7.8861850e+01 </wgt>
<wgt id='1444'> +7.8530615e+01 </wgt>
<wgt id='1445'> +7.8493800e+01 </wgt>
<wgt id='1446'> +7.9270151e+01 </wgt>
<wgt id='1447'> +7.8867356e+01 </wgt>
<wgt id='1448'> +7.8663507e+01 </wgt>
<wgt id='1449'> +7.8758501e+01 </wgt>
<wgt id='1450'> +7.9023591e+01 </wgt>
<wgt id='1451'> +7.8924366e+01 </wgt>
<wgt id='1452'> +7.8804729e+01 </wgt>
<wgt id='1453'> +7.9352760e+01 </wgt>
<wgt id='1454'> +7.9261389e+01 </wgt>
<wgt id='1455'> +7.9134946e+01 </wgt>
<wgt id='1456'> +7.8974310e+01 </wgt>
<wgt id='1457'> +7.9245149e+01 </wgt>
<wgt id='1458'> +7.8682983e+01 </wgt>
<wgt id='1459'> +7.8968833e+01 </wgt>
<wgt id='1460'> +7.9246678e+01 </wgt>
<wgt id='1461'> +7.8783652e+01 </wgt>
<wgt id='1462'> +7.8694664e+01 </wgt>
<wgt id='1463'> +7.9012052e+01 </wgt>
<wgt id='1464'> +7.9545223e+01 </wgt>
<wgt id='1465'> +7.3186254e+01 </wgt>
<wgt id='1466'> +7.4730932e+01 </wgt>
<wgt id='1467'> +7.4852627e+01 </wgt>
<wgt id='1468'> +7.5753183e+01 </wgt>
<wgt id='1469'> +7.5781073e+01 </wgt>
<wgt id='1470'> +7.4459385e+01 </wgt>
<wgt id='1471'> +7.4131412e+01 </wgt>
<wgt id='1472'> +7.4516339e+01 </wgt>
<wgt id='1473'> +7.4561023e+01 </wgt>
<wgt id='1474'> +7.5304119e+01 </wgt>
<wgt id='1475'> +7.4664276e+01 </wgt>
<wgt id='1476'> +7.6936747e+01 </wgt>
<wgt id='1477'> +7.4149444e+01 </wgt>
<wgt id='1478'> +7.2932507e+01 </wgt>
<wgt id='1479'> +7.4455571e+01 </wgt>
<wgt id='1480'> +7.3610010e+01 </wgt>
<wgt id='1481'> +7.4497278e+01 </wgt>
<wgt id='1482'> +7.4761400e+01 </wgt>
<wgt id='1483'> +7.4475878e+01 </wgt>
<wgt id='1484'> +7.5296596e+01 </wgt>
<wgt id='1485'> +7.4890651e+01 </wgt>
<wgt id='1486'> +7.5090367e+01 </wgt>
<wgt id='1487'> +7.4470653e+01 </wgt>
<wgt id='1488'> +7.5179557e+01 </wgt>
<wgt id='1489'> +7.4515934e+01 </wgt>
<wgt id='1490'> +7.4423592e+01 </wgt>
<wgt id='1491'> +7.4807315e+01 </wgt>
<wgt id='1492'> +7.4914459e+01 </wgt>
<wgt id='1493'> +7.4817465e+01 </wgt>
<wgt id='1494'> +7.4267057e+01 </wgt>
<wgt id='1495'> +7.4640830e+01 </wgt>
<wgt id='1496'> +7.4596916e+01 </wgt>
<wgt id='1497'> +7.4729554e+01 </wgt>
<wgt id='1498'> +7.4773169e+01 </wgt>
<wgt id='1499'> +7.4642389e+01 </wgt>
<wgt id='1500'> +7.4775220e+01 </wgt>
<wgt id='1501'> +7.4841172e+01 </wgt>
<wgt id='1502'> +7.4694762e+01 </wgt>
<wgt id='1503'> +7.4785607e+01 </wgt>
<wgt id='1504'> +7.4799639e+01 </wgt>
<wgt id='1505'> +7.4814942e+01 </wgt>
<wgt id='1506'> +7.4679817e+01 </wgt>
<wgt id='1507'> +7.4756438e+01 </wgt>
<wgt id='1508'> +7.4765898e+01 </wgt>
<wgt id='1509'> +7.4674547e+01 </wgt>
<wgt id='1510'> +7.4720840e+01 </wgt>
<wgt id='1511'> +7.4793203e+01 </wgt>
<wgt id='1512'> +7.4741519e+01 </wgt>
<wgt id='1513'> +7.4678210e+01 </wgt>
<wgt id='1514'> +7.4681842e+01 </wgt>
<wgt id='1515'> +7.4703157e+01 </wgt>
<wgt id='1516'> +7.4728109e+01 </wgt>
<wgt id='1517'> +7.4691794e+01 </wgt>
<wgt id='1518'> +7.4748215e+01 </wgt>
<wgt id='1519'> +7.4701359e+01 </wgt>
<wgt id='1520'> +7.4753915e+01 </wgt>
<wgt id='1521'> +7.4707724e+01 </wgt>
<wgt id='1522'> +7.4736213e+01 </wgt>
<wgt id='1523'> +7.4725115e+01 </wgt>
<wgt id='1524'> +7.4748903e+01 </wgt>
<wgt id='1525'> +7.4700350e+01 </wgt>
<wgt id='1526'> +7.4692214e+01 </wgt>
<wgt id='1527'> +7.4679685e+01 </wgt>
<wgt id='1528'> +7.4705166e+01 </wgt>
<wgt id='1529'> +7.4749454e+01 </wgt>
<wgt id='1530'> +7.4708827e+01 </wgt>
<wgt id='1531'> +7.4707753e+01 </wgt>
<wgt id='1532'> +7.4724032e+01 </wgt>
<wgt id='1533'> +7.4728077e+01 </wgt>
<wgt id='1534'> +7.4711936e+01 </wgt>
<wgt id='1535'> +7.4737417e+01 </wgt>
<wgt id='1536'> +7.4739753e+01 </wgt>
<wgt id='1537'> +7.4703568e+01 </wgt>
<wgt id='1538'> +7.4678303e+01 </wgt>
<wgt id='1539'> +7.4709556e+01 </wgt>
<wgt id='1540'> +7.4751440e+01 </wgt>
<wgt id='1541'> +7.4713345e+01 </wgt>
<wgt id='1542'> +7.4704580e+01 </wgt>
<wgt id='1543'> +7.4719325e+01 </wgt>
<wgt id='1544'> +7.4761764e+01 </wgt>
<wgt id='1545'> +7.4728856e+01 </wgt>
<wgt id='1546'> +7.4701657e+01 </wgt>
<wgt id='1547'> +7.4748678e+01 </wgt>
<wgt id='1548'> +7.4700487e+01 </wgt>
<wgt id='1549'> +7.4740424e+01 </wgt>
<wgt id='1550'> +7.4759029e+01 </wgt>
<wgt id='1551'> +7.4719904e+01 </wgt>
<wgt id='1552'> +7.4732550e+01 </wgt>
<wgt id='1553'> +7.4729103e+01 </wgt>
<wgt id='1554'> +7.4727833e+01 </wgt>
<wgt id='1555'> +7.4717242e+01 </wgt>
<wgt id='1556'> +7.4736449e+01 </wgt>
<wgt id='1557'> +7.4728951e+01 </wgt>
<wgt id='1558'> +7.4728002e+01 </wgt>
<wgt id='1559'> +7.4713678e+01 </wgt>
<wgt id='1560'> +7.4741222e+01 </wgt>
<wgt id='1561'> +7.4729196e+01 </wgt>
<wgt id='1562'> +7.4729504e+01 </wgt>
<wgt id='1563'> +7.4749175e+01 </wgt>
<wgt id='1564'> +7.4749083e+01 </wgt>
<wgt id='1565'> +7.4748474e+01 </wgt>
<wgt id='1566'> +7.4728189e+01 </wgt>
<wgt id='1567'> +7.3174171e+01 </wgt>
<wgt id='1568'> +7.6039229e+01 </wgt>
<wgt id='1569'> +7.6721249e+01 </wgt>
<wgt id='1570'> +7.6629253e+01 </wgt>
<wgt id='1571'> +7.7444328e+01 </wgt>
<wgt id='1572'> +7.5683251e+01 </wgt>
<wgt id='1573'> +7.6486145e+01 </wgt>
<wgt id='1574'> +7.7617118e+01 </wgt>
<wgt id='1575'> +7.6216454e+01 </wgt>
<wgt id='1576'> +7.6278846e+01 </wgt>
<wgt id='1577'> +7.6535840e+01 </wgt>
<wgt id='1578'> +7.6531207e+01 </wgt>
<wgt id='1579'> +7.6018501e+01 </wgt>
<wgt id='1580'> +7.8750543e+01 </wgt>
<wgt id='1581'> +7.6336111e+01 </wgt>
<wgt id='1582'> +7.4816608e+01 </wgt>
<wgt id='1583'> +7.5371638e+01 </wgt>
<wgt id='1584'> +7.8069237e+01 </wgt>
<wgt id='1585'> +7.7844761e+01 </wgt>
<wgt id='1586'> +7.6849810e+01 </wgt>
<wgt id='1587'> +7.6382542e+01 </wgt>
<wgt id='1588'> +7.6160612e+01 </wgt>
<wgt id='1589'> +7.6732385e+01 </wgt>
<wgt id='1590'> +7.6328634e+01 </wgt>
<wgt id='1591'> +7.6414735e+01 </wgt>
<wgt id='1592'> +7.6772095e+01 </wgt>
<wgt id='1593'> +7.6239693e+01 </wgt>
<wgt id='1594'> +7.6573436e+01 </wgt>
<wgt id='1595'> +7.6613698e+01 </wgt>
<wgt id='1596'> +7.6455216e+01 </wgt>
<wgt id='1597'> +7.6906159e+01 </wgt>
<wgt id='1598'> +7.6880065e+01 </wgt>
<wgt id='1599'> +7.6543106e+01 </wgt>
<wgt id='1600'> +7.6614285e+01 </wgt>
<wgt id='1601'> +7.6687959e+01 </wgt>
<wgt id='1602'> +7.6871575e+01 </wgt>
<wgt id='1603'> +7.6717107e+01 </wgt>
<wgt id='1604'> +7.6966200e+01 </wgt>
<wgt id='1605'> +7.6764575e+01 </wgt>
<wgt id='1606'> +7.6715591e+01 </wgt>
<wgt id='1607'> +7.6791387e+01 </wgt>
<wgt id='1608'> +7.6793211e+01 </wgt>
<wgt id='1609'> +7.6693595e+01 </wgt>
<wgt id='1610'> +7.6745083e+01 </wgt>
<wgt id='1611'> +7.6633037e+01 </wgt>
<wgt id='1612'> +7.6631213e+01 </wgt>
<wgt id='1613'> +7.6676565e+01 </wgt>
<wgt id='1614'> +7.6744005e+01 </wgt>
<wgt id='1615'> +7.6720236e+01 </wgt>
<wgt id='1616'> +7.6666604e+01 </wgt>
<wgt id='1617'> +7.6735709e+01 </wgt>
<wgt id='1618'> +7.6707788e+01 </wgt>
<wgt id='1619'> +7.6804770e+01 </wgt>
<wgt id='1620'> +7.6763461e+01 </wgt>
<wgt id='1621'> +7.6733292e+01 </wgt>
<wgt id='1622'> +7.6769586e+01 </wgt>
<wgt id='1623'> +7.6715686e+01 </wgt>
<wgt id='1624'> +7.6728542e+01 </wgt>
<wgt id='1625'> +7.6715311e+01 </wgt>
<wgt id='1626'> +7.6694698e+01 </wgt>
<wgt id='1627'> +7.6648674e+01 </wgt>
<wgt id='1628'> +7.6721653e+01 </wgt>
<wgt id='1629'> +7.6691605e+01 </wgt>
<wgt id='1630'> +7.6731333e+01 </wgt>
<wgt id='1631'> +7.6731595e+01 </wgt>
<wgt id='1632'> +7.6729246e+01 </wgt>
<wgt id='1633'> +7.6697325e+01 </wgt>
<wgt id='1634'> +7.6698372e+01 </wgt>
<wgt id='1635'> +7.6758797e+01 </wgt>
<wgt id='1636'> +7.6744606e+01 </wgt>
<wgt id='1637'> +7.6709732e+01 </wgt>
<wgt id='1638'> +7.6784699e+01 </wgt>
<wgt id='1639'> +7.6756246e+01 </wgt>
<wgt id='1640'> +7.6744763e+01 </wgt>
<wgt id='1641'> +7.6752009e+01 </wgt>
<wgt id='1642'> +7.6715596e+01 </wgt>
<wgt id='1643'> +7.6744996e+01 </wgt>
<wgt id='1644'> +7.6717692e+01 </wgt>
<wgt id='1645'> +7.6724465e+01 </wgt>
<wgt id='1646'> +7.6719185e+01 </wgt>
<wgt id='1647'> +7.6756483e+01 </wgt>
<wgt id='1648'> +7.6720567e+01 </wgt>
<wgt id='1649'> +7.6717124e+01 </wgt>
<wgt id='1650'> +7.6722544e+01 </wgt>
<wgt id='1651'> +7.6745859e+01 </wgt>
<wgt id='1652'> +7.6716998e+01 </wgt>
<wgt id='1653'> +7.6707541e+01 </wgt>
<wgt id='1654'> +7.6711027e+01 </wgt>
<wgt id='1655'> +7.6709975e+01 </wgt>
<wgt id='1656'> +7.6701141e+01 </wgt>
<wgt id='1657'> +7.6712160e+01 </wgt>
<wgt id='1658'> +7.6703784e+01 </wgt>
<wgt id='1659'> +7.6730063e+01 </wgt>
<wgt id='1660'> +7.6723672e+01 </wgt>
<wgt id='1661'> +7.6722448e+01 </wgt>
<wgt id='1662'> +7.6716134e+01 </wgt>
<wgt id='1663'> +7.6727859e+01 </wgt>
<wgt id='1664'> +7.6737626e+01 </wgt>
<wgt id='1665'> +7.6716557e+01 </wgt>
<wgt id='1666'> +7.6715438e+01 </wgt>
<wgt id='1667'> +7.6712906e+01 </wgt>
<wgt id='1668'> +7.6704263e+01 </wgt>
<wgt id='1669'> +7.6739728e+01 </wgt>
<wgt id='1670'> +7.5182041e+01 </wgt>
<wgt id='1671'> +7.7797388e+01 </wgt>
<wgt id='1672'> +7.4776031e+01 </wgt>
<wgt id='1673'> +7.5680885e+01 </wgt>
<wgt id='1674'> +7.4253549e+01 </wgt>
<wgt id='1675'> +7.4781708e+01 </wgt>
<wgt id='1676'> +7.4341572e+01 </wgt>
<wgt id='1677'> +7.7996927e+01 </wgt>
<wgt id='1678'> +7.5027023e+01 </wgt>
<wgt id='1679'> +7.4794508e+01 </wgt>
<wgt id='1680'> +7.4894812e+01 </wgt>
<wgt id='1681'> +7.5173993e+01 </wgt>
<wgt id='1682'> +7.4887940e+01 </wgt>
<wgt id='1683'> +7.4385962e+01 </wgt>
<wgt id='1684'> +7.4761158e+01 </wgt>
<wgt id='1685'> +7.4827441e+01 </wgt>
<wgt id='1686'> +7.3439221e+01 </wgt>
<wgt id='1687'> +7.4764843e+01 </wgt>
<wgt id='1688'> +7.4746947e+01 </wgt>
<wgt id='1689'> +7.4781477e+01 </wgt>
<wgt id='1690'> +7.4746103e+01 </wgt>
<wgt id='1691'> +7.4911917e+01 </wgt>
<wgt id='1692'> +7.4759371e+01 </wgt>
<wgt id='1693'> +7.4779332e+01 </wgt>
<wgt id='1694'> +7.4862839e+01 </wgt>
<wgt id='1695'> +7.4714235e+01 </wgt>
<wgt id='1696'> +7.4734587e+01 </wgt>
<wgt id='1697'> +7.4738815e+01 </wgt>
<wgt id='1698'> +7.4810008e+01 </wgt>
<wgt id='1699'> +7.4874676e+01 </wgt>
<wgt id='1700'> +7.4648631e+01 </wgt>
<wgt id='1701'> +7.4855629e+01 </wgt>
<wgt id='1702'> +7.4802934e+01 </wgt>
<wgt id='1703'> +7.3174171e+01 </wgt>
<wgt id='1704'> +7.6039229e+01 </wgt>
<wgt id='1705'> +7.6711596e+01 </wgt>
<wgt id='1706'> +7.6802136e+01 </wgt>
<wgt id='1707'> +7.9031308e+01 </wgt>
<wgt id='1708'> +7.6571181e+01 </wgt>
<wgt id='1709'> +7.7518835e+01 </wgt>
<wgt id='1710'> +7.5325446e+01 </wgt>
<wgt id='1711'> +7.6755904e+01 </wgt>
<wgt id='1712'> +7.6380317e+01 </wgt>
<wgt id='1713'> +7.6444534e+01 </wgt>
<wgt id='1714'> +7.6088416e+01 </wgt>
<wgt id='1715'> +7.6236970e+01 </wgt>
<wgt id='1716'> +7.6273716e+01 </wgt>
<wgt id='1717'> +7.6942604e+01 </wgt>
<wgt id='1718'> +7.7163854e+01 </wgt>
<wgt id='1719'> +7.6366357e+01 </wgt>
<wgt id='1720'> +7.6620181e+01 </wgt>
<wgt id='1721'> +7.6500775e+01 </wgt>
<wgt id='1722'> +7.7738938e+01 </wgt>
<wgt id='1723'> +7.6597753e+01 </wgt>
<wgt id='1724'> +7.6610277e+01 </wgt>
<wgt id='1725'> +7.7121919e+01 </wgt>
<wgt id='1726'> +7.6998370e+01 </wgt>
<wgt id='1727'> +7.9240516e+01 </wgt>
<wgt id='1728'> +7.6767935e+01 </wgt>
<wgt id='1729'> +7.6822193e+01 </wgt>
<wgt id='1730'> +7.6894341e+01 </wgt>
<wgt id='1731'> +7.6741615e+01 </wgt>
<wgt id='1732'> +7.6688530e+01 </wgt>
<wgt id='1733'> +7.6896865e+01 </wgt>
<wgt id='1734'> +7.6879811e+01 </wgt>
<wgt id='1735'> +7.6702214e+01 </wgt>
<wgt id='1736'> +7.5182041e+01 </wgt>
<wgt id='1737'> +7.7797388e+01 </wgt>
<wgt id='1738'> +8.4470246e+01 </wgt>
<wgt id='1739'> +8.4436686e+01 </wgt>
<wgt id='1740'> +8.4503747e+01 </wgt>
<wgt id='1741'> +8.4689547e+01 </wgt>
<wgt id='1742'> +8.4251296e+01 </wgt>
<wgt id='1743'> +8.4650028e+01 </wgt>
<wgt id='1744'> +8.4290820e+01 </wgt>
<wgt id='1745'> +8.4729364e+01 </wgt>
<wgt id='1746'> +8.4211626e+01 </wgt>
<wgt id='1747'> +8.4872769e+01 </wgt>
<wgt id='1748'> +8.4077628e+01 </wgt>
<wgt id='1749'> +8.4395454e+01 </wgt>
<wgt id='1750'> +8.4546382e+01 </wgt>
<wgt id='1751'> +8.4073182e+01 </wgt>
<wgt id='1752'> +8.4870265e+01 </wgt>
<wgt id='1753'> +8.4121154e+01 </wgt>
<wgt id='1754'> +8.4715533e+01 </wgt>
<wgt id='1755'> +8.4582450e+01 </wgt>
<wgt id='1756'> +8.4305086e+01 </wgt>
<wgt id='1757'> +8.4144489e+01 </wgt>
<wgt id='1758'> +8.4802984e+01 </wgt>
<wgt id='1759'> +8.5052002e+01 </wgt>
<wgt id='1760'> +8.3765130e+01 </wgt>
<wgt id='1761'> +8.4480644e+01 </wgt>
<wgt id='1762'> +8.3938463e+01 </wgt>
<wgt id='1763'> +8.4896043e+01 </wgt>
<wgt id='1764'> +8.4190133e+01 </wgt>
<wgt id='1765'> +8.4204569e+01 </wgt>
<wgt id='1766'> +8.4834768e+01 </wgt>
<wgt id='1767'> +8.4470246e+01 </wgt>
<wgt id='1768'> +8.5569898e+01 </wgt>
<wgt id='1769'> +8.3114927e+01 </wgt>
<wgt id='1770'> +8.5963224e+01 </wgt>
<wgt id='1771'> +8.3950365e+01 </wgt>
<wgt id='1772'> +8.5002215e+01 </wgt>
<wgt id='1773'> +8.3317856e+01 </wgt>
<wgt id='1774'> +8.3992912e+01 </wgt>
<wgt id='1775'> +8.4904151e+01 </wgt>
<wgt id='1776'> +8.3773003e+01 </wgt>
<wgt id='1777'> +8.5170772e+01 </wgt>
<wgt id='1778'> +8.4606543e+01 </wgt>
<wgt id='1779'> +8.4926443e+01 </wgt>
<wgt id='1780'> +8.1673095e+01 </wgt>
<wgt id='1781'> +7.7476815e+01 </wgt>
<wgt id='1782'> +7.7518486e+01 </wgt>
<wgt id='1783'> +7.7439408e+01 </wgt>
<wgt id='1784'> +7.7557435e+01 </wgt>
<wgt id='1785'> +7.7400513e+01 </wgt>
<wgt id='1786'> +7.7675529e+01 </wgt>
<wgt id='1787'> +7.7282749e+01 </wgt>
<wgt id='1788'> +7.7780047e+01 </wgt>
<wgt id='1789'> +7.7175422e+01 </wgt>
<wgt id='1790'> +7.7641365e+01 </wgt>
<wgt id='1791'> +7.7316235e+01 </wgt>
<wgt id='1792'> +7.7788754e+01 </wgt>
<wgt id='1793'> +7.7176104e+01 </wgt>
<wgt id='1794'> +7.7199697e+01 </wgt>
<wgt id='1795'> +7.7758883e+01 </wgt>
<wgt id='1796'> +7.7233805e+01 </wgt>
<wgt id='1797'> +7.7682083e+01 </wgt>
<wgt id='1798'> +7.7634626e+01 </wgt>
<wgt id='1799'> +7.7302915e+01 </wgt>
<wgt id='1800'> +7.7410622e+01 </wgt>
<wgt id='1801'> +7.7557114e+01 </wgt>
<wgt id='1802'> +7.6362781e+01 </wgt>
<wgt id='1803'> +7.8443991e+01 </wgt>
<wgt id='1804'> +7.7761279e+01 </wgt>
<wgt id='1805'> +7.7157335e+01 </wgt>
<wgt id='1806'> +7.7440822e+01 </wgt>
<wgt id='1807'> +7.7230572e+01 </wgt>
<wgt id='1808'> +7.7713388e+01 </wgt>
<wgt id='1809'> +7.7382764e+01 </wgt>
<wgt id='1810'> +7.7351943e+01 </wgt>
<wgt id='1811'> +7.8552365e+01 </wgt>
<wgt id='1812'> +7.6031332e+01 </wgt>
<wgt id='1813'> +7.8911349e+01 </wgt>
<wgt id='1814'> +7.6711383e+01 </wgt>
<wgt id='1815'> +7.7846536e+01 </wgt>
<wgt id='1816'> +7.6753676e+01 </wgt>
<wgt id='1817'> +7.6946572e+01 </wgt>
<wgt id='1818'> +7.7924541e+01 </wgt>
<wgt id='1819'> +7.6620946e+01 </wgt>
<wgt id='1820'> +7.8527706e+01 </wgt>
<wgt id='1821'> +7.6947443e+01 </wgt>
<wgt id='1822'> +7.8588122e+01 </wgt>
<wgt id='1823'> +7.6379268e+01 </wgt>
<wgt id='1824'> +7.2773755e+01 </wgt>
<wgt id='1825'> +7.2758050e+01 </wgt>
<wgt id='1826'> +7.2741572e+01 </wgt>
<wgt id='1827'> +7.2726095e+01 </wgt>
<wgt id='1828'> +7.2709623e+01 </wgt>
<wgt id='1829'> +7.2693950e+01 </wgt>
<wgt id='1830'> +7.2678180e+01 </wgt>
<wgt id='1831'> +7.2661955e+01 </wgt>
<wgt id='1832'> +7.2646207e+01 </wgt>
<wgt id='1833'> +7.2629886e+01 </wgt>
<wgt id='1834'> +7.2613898e+01 </wgt>
<wgt id='1835'> +7.2597968e+01 </wgt>
<wgt id='1836'> +7.2582048e+01 </wgt>
<wgt id='1837'> +7.2566387e+01 </wgt>
<wgt id='1838'> +7.2550019e+01 </wgt>
<wgt id='1839'> +7.2534065e+01 </wgt>
<wgt id='1840'> +7.2518071e+01 </wgt>
<wgt id='1841'> +7.2502255e+01 </wgt>
<wgt id='1842'> +7.2485913e+01 </wgt>
<wgt id='1843'> +7.2470233e+01 </wgt>
<wgt id='1844'> +7.2454297e+01 </wgt>
<wgt id='1845'> +7.2438277e+01 </wgt>
<wgt id='1846'> +7.2422246e+01 </wgt>
<wgt id='1847'> +7.2405882e+01 </wgt>
<wgt id='1848'> +7.2390426e+01 </wgt>
<wgt id='1849'> +7.2374108e+01 </wgt>
<wgt id='1850'> +7.2358425e+01 </wgt>
<wgt id='1851'> +7.2342575e+01 </wgt>
<wgt id='1852'> +7.2326104e+01 </wgt>
<wgt id='1853'> +7.2310498e+01 </wgt>
<wgt id='1854'> +7.2294356e+01 </wgt>
<wgt id='1855'> +7.6049268e+01 </wgt>
<wgt id='1856'> +7.5956876e+01 </wgt>
<wgt id='1857'> +7.6777031e+01 </wgt>
<wgt id='1858'> +7.5009120e+01 </wgt>
<wgt id='1859'> +7.5812957e+01 </wgt>
<wgt id='1860'> +7.6938852e+01 </wgt>
<wgt id='1861'> +7.5538789e+01 </wgt>
<wgt id='1862'> +7.5606296e+01 </wgt>
<wgt id='1863'> +7.5862211e+01 </wgt>
<wgt id='1864'> +7.5858520e+01 </wgt>
<wgt id='1865'> +7.5341466e+01 </wgt>
<wgt id='1866'> +7.8070493e+01 </wgt>
<wgt id='1867'> +7.5670530e+01 </wgt>
<wgt id='1868'> +7.4142472e+01 </wgt>
<wgt id='1869'> +7.4715632e+01 </wgt>
<wgt id='1870'> +7.7402343e+01 </wgt>
<wgt id='1871'> +7.7172588e+01 </wgt>
<wgt id='1872'> +7.6177251e+01 </wgt>
<wgt id='1873'> +7.5710353e+01 </wgt>
<wgt id='1874'> +7.5491351e+01 </wgt>
<wgt id='1875'> +7.6050862e+01 </wgt>
<wgt id='1876'> +7.5652135e+01 </wgt>
<wgt id='1877'> +7.5746627e+01 </wgt>
<wgt id='1878'> +7.6094049e+01 </wgt>
<wgt id='1879'> +7.5572055e+01 </wgt>
<wgt id='1880'> +7.5903771e+01 </wgt>
<wgt id='1881'> +7.5945070e+01 </wgt>
<wgt id='1882'> +7.5777959e+01 </wgt>
<wgt id='1883'> +7.6230568e+01 </wgt>
<wgt id='1884'> +7.6213008e+01 </wgt>
<wgt id='1885'> +7.5871073e+01 </wgt>
<wgt id='1886'> +7.5935036e+01 </wgt>
<wgt id='1887'> +7.6016633e+01 </wgt>
<wgt id='1888'> +7.6197291e+01 </wgt>
<wgt id='1889'> +7.6049904e+01 </wgt>
<wgt id='1890'> +7.6295120e+01 </wgt>
<wgt id='1891'> +7.6091109e+01 </wgt>
<wgt id='1892'> +7.6041390e+01 </wgt>
<wgt id='1893'> +7.6118189e+01 </wgt>
<wgt id='1894'> +7.6121656e+01 </wgt>
<wgt id='1895'> +7.6021918e+01 </wgt>
<wgt id='1896'> +7.6076425e+01 </wgt>
<wgt id='1897'> +7.5963258e+01 </wgt>
<wgt id='1898'> +7.5953892e+01 </wgt>
<wgt id='1899'> +7.6006007e+01 </wgt>
<wgt id='1900'> +7.6073424e+01 </wgt>
<wgt id='1901'> +7.6045552e+01 </wgt>
<wgt id='1902'> +7.5997804e+01 </wgt>
<wgt id='1903'> +7.6062211e+01 </wgt>
<wgt id='1904'> +7.6038485e+01 </wgt>
<wgt id='1905'> +7.6131092e+01 </wgt>
<wgt id='1906'> +7.6090370e+01 </wgt>
<wgt id='1907'> +7.6061135e+01 </wgt>
<wgt id='1908'> +7.6094683e+01 </wgt>
<wgt id='1909'> +7.6042982e+01 </wgt>
<wgt id='1910'> +7.6057583e+01 </wgt>
<wgt id='1911'> +7.6046203e+01 </wgt>
<wgt id='1912'> +7.6023971e+01 </wgt>
<wgt id='1913'> +7.5973963e+01 </wgt>
<wgt id='1914'> +7.6048412e+01 </wgt>
<wgt id='1915'> +7.6019946e+01 </wgt>
<wgt id='1916'> +7.6059609e+01 </wgt>
<wgt id='1917'> +7.6060697e+01 </wgt>
<wgt id='1918'> +7.6056997e+01 </wgt>
<wgt id='1919'> +7.6026338e+01 </wgt>
<wgt id='1920'> +7.6026732e+01 </wgt>
<wgt id='1921'> +7.6085891e+01 </wgt>
<wgt id='1922'> +7.6072829e+01 </wgt>
<wgt id='1923'> +7.6038424e+01 </wgt>
<wgt id='1924'> +7.6113082e+01 </wgt>
<wgt id='1925'> +7.6085311e+01 </wgt>
<wgt id='1926'> +7.6070964e+01 </wgt>
<wgt id='1927'> +7.6079413e+01 </wgt>
<wgt id='1928'> +7.6044842e+01 </wgt>
<wgt id='1929'> +7.6073710e+01 </wgt>
<wgt id='1930'> +7.6046383e+01 </wgt>
<wgt id='1931'> +7.6049580e+01 </wgt>
<wgt id='1932'> +7.6046797e+01 </wgt>
<wgt id='1933'> +7.6081851e+01 </wgt>
<wgt id='1934'> +7.6047484e+01 </wgt>
<wgt id='1935'> +7.6047294e+01 </wgt>
<wgt id='1936'> +7.6048984e+01 </wgt>
<wgt id='1937'> +7.6073228e+01 </wgt>
<wgt id='1938'> +7.6045531e+01 </wgt>
<wgt id='1939'> +7.6035969e+01 </wgt>
<wgt id='1940'> +7.6037869e+01 </wgt>
<wgt id='1941'> +7.6037091e+01 </wgt>
<wgt id='1942'> +7.6030002e+01 </wgt>
<wgt id='1943'> +7.6040481e+01 </wgt>
<wgt id='1944'> +7.6032748e+01 </wgt>
<wgt id='1945'> +7.6058082e+01 </wgt>
<wgt id='1946'> +7.6051841e+01 </wgt>
<wgt id='1947'> +7.6049961e+01 </wgt>
<wgt id='1948'> +7.6044074e+01 </wgt>
<wgt id='1949'> +7.6055275e+01 </wgt>
<wgt id='1950'> +7.6064594e+01 </wgt>
<wgt id='1951'> +7.6044811e+01 </wgt>
<wgt id='1952'> +7.6043299e+01 </wgt>
<wgt id='1953'> +7.6039705e+01 </wgt>
<wgt id='1954'> +7.6031342e+01 </wgt>
<wgt id='1955'> +7.6067739e+01 </wgt>
<wgt id='1956'> +7.6048450e+01 </wgt>
<wgt id='1957'> +7.6053757e+01 </wgt>
<wgt id='1958'> +7.6050125e+01 </wgt>
<wgt id='1959'> +7.6050272e+01 </wgt>
<wgt id='1960'> +7.6051795e+01 </wgt>
<wgt id='1961'> +7.6049632e+01 </wgt>
<wgt id='1962'> +7.6054695e+01 </wgt>
</rwgt>
</event>
<event npLO=" -1 " npNLO=" 1 ">
 7      1 -1.5146096e+02 1.31900410e+01 7.54677110e-03 1.66248260e-01
        1 -1    0    0  502    0 +0.0000000000e+00 +0.0000000000e+00 +8.5923187000e+01 8.5923187000e+01 0.0000000000e+00 0.0000e+00 9.0000e+00
       -1 -1    0    0    0  501 +0.0000000000e+00 +0.0000000000e+00 -4.2523032000e+01 4.2523032000e+01 0.0000000000e+00 0.0000e+00 9.0000e+00
       23  2    1    2    0    0 -7.4399016000e+00 -1.0891512000e+01 +5.4175273000e+01 1.1141447000e+02 9.6458527000e+01 0.0000e+00 0.0000e+00
       11  1    3    3    0    0 -1.3524411000e+01 +2.6546853000e+01 +3.5424058000e+01 4.6287244000e+01 0.0000000000e+00 0.0000e+00 9.0000e+00
      -11  1    3    3    0    0 +2.2595136000e+01 -3.7741085000e+01 +6.2804283000e+00 4.4433922000e+01 0.0000000000e+00 0.0000e+00 9.0000e+00
       22  1    3    3    0    0 -1.6510626000e+01 +3.0271944000e-01 +1.2470787000e+01 2.0693307000e+01 0.0000000000e+00 0.0000e+00 9.0000e+00
       21  1    1    2  502  501 +7.4399016000e+00 +1.0891512000e+01 -1.0775119000e+01 1.7031745000e+01 0.0000000000e+00 0.0000e+00 9.0000e+00
#aMCatNLO 1  0  0  6  2 0.16205558E+01 0.00000000E+00 -9  7  0 0.00000000E+00 0.00000000E+00 0.00000000E+00 0.00000000E+00 0.00000000E+00
<rwgt>
<wgt id='1001'> -1.5146000e+02 </wgt>
<wgt id='1002'> -1.5146000e+02 </wgt>
<wgt id='1003'> -1.3998000e+02 </wgt>
<wgt id='1004'> -1.5673000e+02 </wgt>
<wgt id='1005'> -1.5865000e+02 </wgt>
<wgt id='1006'> -1.5761000e+02 </wgt>
<wgt id='1007'> -1.3500000e+02 </wgt>
<wgt id='1008'> -1.4201000e+02 </wgt>
<wgt id='1009'> -1.5530000e+02 </wgt>
<wgt id='1010'> -1.5139000e+02 </wgt>
<wgt id='1011'> -1.5241000e+02 </wgt>
<wgt id='1012'> -1.4845000e+02 </wgt>
<wgt id='1013'> -1.4883000e+02 </wgt>
<wgt id='1014'> -1.5307000e+02 </wgt>
<wgt id='1015'> -1.5518000e+02 </wgt>
<wgt id='1016'> -1.5176000e+02 </wgt>
<wgt id='1017'> -1.5047000e+02 </wgt>
<wgt id='1018'> -1.4594000e+02 </wgt>
<wgt id='1019'> -1.4552000e+02 </wgt>
<wgt id='1020'> -1.4161000e+02 </wgt>
<wgt id='1021'> -1.5170000e+02 </wgt>
<wgt id='1022'> -1.5351000e+02 </wgt>
<wgt id='1023'> -1.6345000e+02 </wgt>
<wgt id='1024'> -1.5570000e+02 </wgt>
<wgt id='1025'> -1.5521000e+02 </wgt>
<wgt id='1026'> -1.5371000e+02 </wgt>
<wgt id='1027'> -1.5506000e+02 </wgt>
<wgt id='1028'> -1.4873000e+02 </wgt>
<wgt id='1029'> -1.4995000e+02 </wgt>
<wgt id='1030'> -1.5101000e+02 </wgt>
<wgt id='1031'> -1.5035000e+02 </wgt>
<wgt id='1032'> -1.5805000e+02 </wgt>
<wgt id='1033'> -1.5791000e+02 </wgt>
<wgt id='1034'> -1.4469000e+02 </wgt>
<wgt id='1035'> -1.5518000e+02 </wgt>
<wgt id='1036'> -1.4983000e+02 </wgt>
<wgt id='1037'> -1.6152000e+02 </wgt>
<wgt id='1038'> -1.4896000e+02 </wgt>
<wgt id='1039'> -1.5173000e+02 </wgt>
<wgt id='1040'> -1.3987000e+02 </wgt>
<wgt id='1041'> -1.5199000e+02 </wgt>
<wgt id='1042'> -1.5452000e+02 </wgt>
<wgt id='1043'> -1.5712000e+02 </wgt>
<wgt id='1044'> -1.5388000e+02 </wgt>
<wgt id='1045'> -1.5202000e+02 </wgt>
<wgt id='1046'> -1.5069000e+02 </wgt>
<wgt id='1047'> -1.5463000e+02 </wgt>
<wgt id='1048'> -1.5010000e+02 </wgt>
<wgt id='1049'> -1.4815000e+02 </wgt>
<wgt id='1050'> -1.4917000e+02 </wgt>
<wgt id='1051'> -1.5849000e+02 </wgt>
<wgt id='1052'> -1.5623000e+02 </wgt>
<wgt id='1053'> -1.5712000e+02 </wgt>
<wgt id='1054'> -1.4858000e+02 </wgt>
<wgt id='1055'> -1.4411000e+02 </wgt>
<wgt id='1056'> -1.5267000e+02 </wgt>
<wgt id='1057'> -1.5057000e+02 </wgt>
<wgt id='1058'> -1.4710000e+02 </wgt>
<wgt id='1059'> -1.5603000e+02 </wgt>
<wgt id='1060'> -1.5338000e+02 </wgt>
<wgt id='1061'> -1.5350000e+02 </wgt>
<wgt id='1062'> -1.5619000e+02 </wgt>
<wgt id='1063'> -1.5274000e+02 </wgt>
<wgt id='1064'> -1.5501000e+02 </wgt>
<wgt id='1065'> -1.5229000e+02 </wgt>
<wgt id='1066'> -1.4984000e+02 </wgt>
<wgt id='1067'> -1.5565000e+02 </wgt>
<wgt id='1068'> -1.5172000e+02 </wgt>
<wgt id='1069'> -1.4515000e+02 </wgt>
<wgt id='1070'> -1.5357000e+02 </wgt>
<wgt id='1071'> -1.4714000e+02 </wgt>
<wgt id='1072'> -1.4875000e+02 </wgt>
<wgt id='1073'> -1.5099000e+02 </wgt>
<wgt id='1074'> -1.4036000e+02 </wgt>
<wgt id='1075'> -1.3840000e+02 </wgt>
<wgt id='1076'> -1.5135000e+02 </wgt>
<wgt id='1077'> -1.5469000e+02 </wgt>
<wgt id='1078'> -1.4299000e+02 </wgt>
<wgt id='1079'> -1.5007000e+02 </wgt>
<wgt id='1080'> -1.5502000e+02 </wgt>
<wgt id='1081'> -1.4751000e+02 </wgt>
<wgt id='1082'> -1.5475000e+02 </wgt>
<wgt id='1083'> -1.5503000e+02 </wgt>
<wgt id='1084'> -1.5893000e+02 </wgt>
<wgt id='1085'> -1.4684000e+02 </wgt>
<wgt id='1086'> -1.5416000e+02 </wgt>
<wgt id='1087'> -1.5221000e+02 </wgt>
<wgt id='1088'> -1.5321000e+02 </wgt>
<wgt id='1089'> -1.5091000e+02 </wgt>
<wgt id='1090'> -1.5692000e+02 </wgt>
<wgt id='1091'> -1.4910000e+02 </wgt>
<wgt id='1092'> -1.5469000e+02 </wgt>
<wgt id='1093'> -1.6079000e+02 </wgt>
<wgt id='1094'> -1.4935000e+02 </wgt>
<wgt id='1095'> -1.5032000e+02 </wgt>
<wgt id='1096'> -1.5062000e+02 </wgt>
<wgt id='1097'> -1.4753000e+02 </wgt>
<wgt id='1098'> -1.4816000e+02 </wgt>
<wgt id='1099'> -1.5342000e+02 </wgt>
<wgt id='1100'> -1.5160000e+02 </wgt>
<wgt id='1101'> -1.5630000e+02 </wgt>
<wgt id='1102'> -1.4874000e+02 </wgt>
<wgt id='1103'> -1.4761000e+02 </wgt>
<wgt id='1104'> -1.5602000e+02 </wgt>
<wgt id='1105'> -1.5146096e+02 </wgt>
<wgt id='1106'> -5.6574589e+01 </wgt>
<wgt id='1107'> -1.0639052e+02 </wgt>
<wgt id='1108'> -8.4368728e+01 </wgt>
<wgt id='1109'> -6.3028266e+01 </wgt>
<wgt id='1110'> -1.1852511e+02 </wgt>
<wgt id='1111'> -6.6113810e+01 </wgt>
<wgt id='1112'> -4.9390033e+01 </wgt>
<wgt id='1113'> -9.2881275e+01 </wgt>
<wgt id='1114'> -8.3358921e+01 </wgt>
<wgt id='1115'> -9.1693511e+01 </wgt>
<wgt id='1116'> -8.5087138e+01 </wgt>
<wgt id='1117'> -7.6523860e+01 </wgt>
<wgt id='1118'> -8.1019547e+01 </wgt>
<wgt id='1119'> -8.3111504e+01 </wgt>
<wgt id='1120'> -9.1536415e+01 </wgt>
<wgt id='1121'> -8.5769502e+01 </wgt>
<wgt id='1122'> -7.8366580e+01 </wgt>
<wgt id='1123'> -8.1668227e+01 </wgt>
<wgt id='1124'> -8.2873605e+01 </wgt>
<wgt id='1125'> -8.1990849e+01 </wgt>
<wgt id='1126'> -8.0935653e+01 </wgt>
<wgt id='1127'> -8.2283838e+01 </wgt>
<wgt id='1128'> -8.0288594e+01 </wgt>
<wgt id='1129'> -8.4229140e+01 </wgt>
<wgt id='1130'> -8.5160999e+01 </wgt>
<wgt id='1131'> -8.7089853e+01 </wgt>
<wgt id='1132'> -8.2229591e+01 </wgt>
<wgt id='1133'> -8.3889599e+01 </wgt>
<wgt id='1134'> -7.8415660e+01 </wgt>
<wgt id='1135'> -8.1202209e+01 </wgt>
<wgt id='1136'> -8.4921703e+01 </wgt>
<wgt id='1137'> -8.8625286e+01 </wgt>
<wgt id='1138'> -8.0937993e+01 </wgt>
<wgt id='1139'> -8.1350140e+01 </wgt>
<wgt id='1140'> -8.2066613e+01 </wgt>
<wgt id='1141'> -8.8376757e+01 </wgt>
<wgt id='1142'> -8.3507699e+01 </wgt>
<wgt id='1143'> -8.4595224e+01 </wgt>
<wgt id='1144'> -8.7671777e+01 </wgt>
<wgt id='1145'> -8.4453455e+01 </wgt>
<wgt id='1146'> -8.3362230e+01 </wgt>
<wgt id='1147'> -8.7453357e+01 </wgt>
<wgt id='1148'> -7.8785176e+01 </wgt>
<wgt id='1149'> -8.3361828e+01 </wgt>
<wgt id='1150'> -8.2665878e+01 </wgt>
<wgt id='1151'> -8.2798648e+01 </wgt>
<wgt id='1152'> -8.2279886e+01 </wgt>
<wgt id='1153'> -8.2623898e+01 </wgt>
<wgt id='1154'> -8.0300436e+01 </wgt>
<wgt id='1155'> -8.2730300e+01 </wgt>
<wgt id='1156'> -8.5635159e+01 </wgt>
<wgt id='1157'> -8.6313655e+01 </wgt>
<wgt id='1158'> -8.6883032e+01 </wgt>
<wgt id='1159'> -8.3694145e+01 </wgt>
<wgt id='1160'> -8.4704363e+01 </wgt>
<wgt id='1161'> -8.3753539e+01 </wgt>
<wgt id='1162'> -7.8872660e+01 </wgt>
<wgt id='1163'> -8.7607889e+01 </wgt>
<wgt id='1164'> -8.5034692e+01 </wgt>
<wgt id='1165'> -8.2318440e+01 </wgt>
<wgt id='1166'> -8.3486267e+01 </wgt>
<wgt id='1167'> -8.2526964e+01 </wgt>
<wgt id='1168'> -8.7184049e+01 </wgt>
<wgt id='1169'> -7.8799008e+01 </wgt>
<wgt id='1170'> -8.5881032e+01 </wgt>
<wgt id='1171'> -8.7424582e+01 </wgt>
<wgt id='1172'> -8.3429586e+01 </wgt>
<wgt id='1173'> -8.2255987e+01 </wgt>
<wgt id='1174'> -8.3873197e+01 </wgt>
<wgt id='1175'> -8.5446180e+01 </wgt>
<wgt id='1176'> -8.5195552e+01 </wgt>
<wgt id='1177'> -8.1450879e+01 </wgt>
<wgt id='1178'> -7.7567477e+01 </wgt>
<wgt id='1179'> -8.5917335e+01 </wgt>
<wgt id='1180'> -8.2597120e+01 </wgt>
<wgt id='1181'> -8.3918020e+01 </wgt>
<wgt id='1182'> -8.7567889e+01 </wgt>
<wgt id='1183'> -8.4697190e+01 </wgt>
<wgt id='1184'> -8.3058764e+01 </wgt>
<wgt id='1185'> -8.3301079e+01 </wgt>
<wgt id='1186'> -8.5814289e+01 </wgt>
<wgt id='1187'> -8.0037601e+01 </wgt>
<wgt id='1188'> -7.8665114e+01 </wgt>
<wgt id='1189'> -8.1617116e+01 </wgt>
<wgt id='1190'> -8.4921125e+01 </wgt>
<wgt id='1191'> -8.1142249e+01 </wgt>
<wgt id='1192'> -8.3884227e+01 </wgt>
<wgt id='1193'> -8.2303004e+01 </wgt>
<wgt id='1194'> -8.3084337e+01 </wgt>
<wgt id='1195'> -8.3184355e+01 </wgt>
<wgt id='1196'> -8.5160999e+01 </wgt>
<wgt id='1197'> -8.2260644e+01 </wgt>
<wgt id='1198'> -8.0793340e+01 </wgt>
<wgt id='1199'> -8.1117424e+01 </wgt>
<wgt id='1200'> -9.0169071e+01 </wgt>
<wgt id='1201'> -8.1934544e+01 </wgt>
<wgt id='1202'> -8.6233385e+01 </wgt>
<wgt id='1203'> -7.5689079e+01 </wgt>
<wgt id='1204'> -8.3131352e+01 </wgt>
<wgt id='1205'> -8.3178400e+01 </wgt>
<wgt id='1206'> -7.8664816e+01 </wgt>
<wgt id='1207'> -8.1551687e+01 </wgt>
<wgt id='1208'> -8.7519583e+01 </wgt>
<wgt id='1209'> -8.3171719e+01 </wgt>
<wgt id='1210'> -8.2692691e+01 </wgt>
<wgt id='1211'> -8.4458159e+01 </wgt>
<wgt id='1212'> -8.2142055e+01 </wgt>
<wgt id='1213'> -8.0210368e+01 </wgt>
<wgt id='1214'> -8.4478992e+01 </wgt>
<wgt id='1215'> -7.9753346e+01 </wgt>
<wgt id='1216'> -8.1149016e+01 </wgt>
<wgt id='1217'> -8.1028444e+01 </wgt>
<wgt id='1218'> -8.1435562e+01 </wgt>
<wgt id='1219'> -8.1025293e+01 </wgt>
<wgt id='1220'> -8.1669551e+01 </wgt>
<wgt id='1221'> -8.1295232e+01 </wgt>
<wgt id='1222'> -8.0581496e+01 </wgt>
<wgt id='1223'> -8.1546925e+01 </wgt>
<wgt id='1224'> -8.1535279e+01 </wgt>
<wgt id='1225'> -8.1551793e+01 </wgt>
<wgt id='1226'> -8.0317443e+01 </wgt>
<wgt id='1227'> -8.0861153e+01 </wgt>
<wgt id='1228'> -8.1445194e+01 </wgt>
<wgt id='1229'> -8.1723402e+01 </wgt>
<wgt id='1230'> -8.1353707e+01 </wgt>
<wgt id='1231'> -8.0497614e+01 </wgt>
<wgt id='1232'> -8.2373458e+01 </wgt>
<wgt id='1233'> -8.0681409e+01 </wgt>
<wgt id='1234'> -8.1624960e+01 </wgt>
<wgt id='1235'> -8.1085413e+01 </wgt>
<wgt id='1236'> -8.0571963e+01 </wgt>
<wgt id='1237'> -8.2061178e+01 </wgt>
<wgt id='1238'> -8.1075594e+01 </wgt>
<wgt id='1239'> -8.0599104e+01 </wgt>
<wgt id='1240'> -8.2147943e+01 </wgt>
<wgt id='1241'> -8.0760559e+01 </wgt>
<wgt id='1242'> -8.1317690e+01 </wgt>
<wgt id='1243'> -8.0701760e+01 </wgt>
<wgt id='1244'> -8.1168928e+01 </wgt>
<wgt id='1245'> -8.1773060e+01 </wgt>
<wgt id='1246'> -8.0806349e+01 </wgt>
<wgt id='1247'> -8.0897783e+01 </wgt>
<wgt id='1248'> -8.1385461e+01 </wgt>
<wgt id='1249'> -8.1135377e+01 </wgt>
<wgt id='1250'> -8.0969846e+01 </wgt>
<wgt id='1251'> -8.1363526e+01 </wgt>
<wgt id='1252'> -8.1154906e+01 </wgt>
<wgt id='1253'> -8.1054424e+01 </wgt>
<wgt id='1254'> -8.1101724e+01 </wgt>
<wgt id='1255'> -8.1267576e+01 </wgt>
<wgt id='1256'> -8.1199799e+01 </wgt>
<wgt id='1257'> -8.1245248e+01 </wgt>
<wgt id='1258'> -8.0835569e+01 </wgt>
<wgt id='1259'> -8.1255284e+01 </wgt>
<wgt id='1260'> -8.1113013e+01 </wgt>
<wgt id='1261'> -8.1062190e+01 </wgt>
<wgt id='1262'> -8.1365641e+01 </wgt>
<wgt id='1263'> -8.1286061e+01 </wgt>
<wgt id='1264'> -8.1148258e+01 </wgt>
<wgt id='1265'> -8.1055568e+01 </wgt>
<wgt id='1266'> -8.1249578e+01 </wgt>
<wgt id='1267'> -8.1097467e+01 </wgt>
<wgt id='1268'> -8.0893740e+01 </wgt>
<wgt id='1269'> -8.1088519e+01 </wgt>
<wgt id='1270'> -8.0908034e+01 </wgt>
<wgt id='1271'> -8.1197019e+01 </wgt>
<wgt id='1272'> -8.1120827e+01 </wgt>
<wgt id='1273'> -8.1052120e+01 </wgt>
<wgt id='1274'> -8.1186803e+01 </wgt>
<wgt id='1275'> -8.1196359e+01 </wgt>
<wgt id='1276'> -8.1088138e+01 </wgt>
<wgt id='1277'> -8.1282309e+01 </wgt>
<wgt id='1278'> -8.1417992e+01 </wgt>
<wgt id='1279'> -8.1372218e+01 </wgt>
<wgt id='1280'> -8.1152927e+01 </wgt>
<wgt id='1281'> -8.1173560e+01 </wgt>
<wgt id='1282'> -8.1276174e+01 </wgt>
<wgt id='1283'> -8.1126548e+01 </wgt>
<wgt id='1284'> -8.1072329e+01 </wgt>
<wgt id='1285'> -8.1066614e+01 </wgt>
<wgt id='1286'> -8.1190143e+01 </wgt>
<wgt id='1287'> -8.1147080e+01 </wgt>
<wgt id='1288'> -8.1213610e+01 </wgt>
<wgt id='1289'> -8.1213751e+01 </wgt>
<wgt id='1290'> -8.1185616e+01 </wgt>
<wgt id='1291'> -8.1158778e+01 </wgt>
<wgt id='1292'> -8.1030980e+01 </wgt>
<wgt id='1293'> -8.1259910e+01 </wgt>
<wgt id='1294'> -8.1157452e+01 </wgt>
<wgt id='1295'> -8.1172487e+01 </wgt>
<wgt id='1296'> -8.1098792e+01 </wgt>
<wgt id='1297'> -8.1106295e+01 </wgt>
<wgt id='1298'> -8.1152487e+01 </wgt>
<wgt id='1299'> -8.1143746e+01 </wgt>
<wgt id='1300'> -8.1151236e+01 </wgt>
<wgt id='1301'> -8.1230824e+01 </wgt>
<wgt id='1302'> -8.1105566e+01 </wgt>
<wgt id='1303'> -8.1127891e+01 </wgt>
<wgt id='1304'> -8.1173675e+01 </wgt>
<wgt id='1305'> -8.1162651e+01 </wgt>
<wgt id='1306'> -8.1133250e+01 </wgt>
<wgt id='1307'> -8.1007562e+01 </wgt>
<wgt id='1308'> -8.1179947e+01 </wgt>
<wgt id='1309'> -8.1083065e+01 </wgt>
<wgt id='1310'> -8.1236345e+01 </wgt>
<wgt id='1311'> -8.1113393e+01 </wgt>
<wgt id='1312'> -8.1185659e+01 </wgt>
<wgt id='1313'> -8.1126661e+01 </wgt>
<wgt id='1314'> -8.1180084e+01 </wgt>
<wgt id='1315'> -8.1125239e+01 </wgt>
<wgt id='1316'> -8.1124814e+01 </wgt>
<wgt id='1317'> -7.6875223e+01 </wgt>
<wgt id='1318'> -8.5634309e+01 </wgt>
<wgt id='1319'> -8.8260481e+01 </wgt>
<wgt id='1320'> -7.7613884e+01 </wgt>
<wgt id='1321'> -7.9325728e+01 </wgt>
<wgt id='1322'> -7.6200632e+01 </wgt>
<wgt id='1323'> -7.8148968e+01 </wgt>
<wgt id='1324'> -7.7919670e+01 </wgt>
<wgt id='1325'> -7.9364358e+01 </wgt>
<wgt id='1326'> -7.6814171e+01 </wgt>
<wgt id='1327'> -7.8761607e+01 </wgt>
<wgt id='1328'> -7.8498376e+01 </wgt>
<wgt id='1329'> -7.7016156e+01 </wgt>
<wgt id='1330'> -7.7666985e+01 </wgt>
<wgt id='1331'> -7.6607529e+01 </wgt>
<wgt id='1332'> -7.8710083e+01 </wgt>
<wgt id='1333'> -7.5740281e+01 </wgt>
<wgt id='1334'> -7.7894483e+01 </wgt>
<wgt id='1335'> -7.9277753e+01 </wgt>
<wgt id='1336'> -7.5038322e+01 </wgt>
<wgt id='1337'> -8.0901947e+01 </wgt>
<wgt id='1338'> -7.4045571e+01 </wgt>
<wgt id='1339'> -7.7882584e+01 </wgt>
<wgt id='1340'> -7.7240769e+01 </wgt>
<wgt id='1341'> -7.7849520e+01 </wgt>
<wgt id='1342'> -7.7004571e+01 </wgt>
<wgt id='1343'> -8.0036336e+01 </wgt>
<wgt id='1344'> -7.5112055e+01 </wgt>
<wgt id='1345'> -7.7666101e+01 </wgt>
<wgt id='1346'> -7.7649827e+01 </wgt>
<wgt id='1347'> -7.6022266e+01 </wgt>
<wgt id='1348'> -7.9623878e+01 </wgt>
<wgt id='1349'> -7.7817418e+01 </wgt>
<wgt id='1350'> -7.7539147e+01 </wgt>
<wgt id='1351'> -7.7827257e+01 </wgt>
<wgt id='1352'> -7.7332061e+01 </wgt>
<wgt id='1353'> -7.7504449e+01 </wgt>
<wgt id='1354'> -7.7836124e+01 </wgt>
<wgt id='1355'> -7.8464055e+01 </wgt>
<wgt id='1356'> -7.6927401e+01 </wgt>
<wgt id='1357'> -7.7745032e+01 </wgt>
<wgt id='1358'> -7.6823402e+01 </wgt>
<wgt id='1359'> -7.6245959e+01 </wgt>
<wgt id='1360'> -7.7942381e+01 </wgt>
<wgt id='1361'> -7.7248068e+01 </wgt>
<wgt id='1362'> -7.8351919e+01 </wgt>
<wgt id='1363'> -7.7792094e+01 </wgt>
<wgt id='1364'> -7.7122946e+01 </wgt>
<wgt id='1365'> -7.7038443e+01 </wgt>
<wgt id='1366'> -7.6695334e+01 </wgt>
<wgt id='1367'> -7.6236060e+01 </wgt>
<wgt id='1368'> -7.7657912e+01 </wgt>
<wgt id='1369'> -7.6757255e+01 </wgt>
<wgt id='1370'> -7.7552179e+01 </wgt>
<wgt id='1371'> -7.6221560e+01 </wgt>
<wgt id='1372'> -7.6332293e+01 </wgt>
<wgt id='1373'> -7.6705049e+01 </wgt>
<wgt id='1374'> -7.6831921e+01 </wgt>
<wgt id='1375'> -7.6454211e+01 </wgt>
<wgt id='1376'> -7.9579425e+01 </wgt>
<wgt id='1377'> -7.2854839e+01 </wgt>
<wgt id='1378'> -8.2515287e+01 </wgt>
<wgt id='1379'> -7.9060230e+01 </wgt>
<wgt id='1380'> -7.4092858e+01 </wgt>
<wgt id='1381'> -8.4379126e+01 </wgt>
<wgt id='1382'> -7.1165890e+01 </wgt>
<wgt id='1383'> -7.4688600e+01 </wgt>
<wgt id='1384'> -8.0209765e+01 </wgt>
<wgt id='1385'> -9.2899570e+01 </wgt>
<wgt id='1386'> -9.3351719e+01 </wgt>
<wgt id='1387'> -9.2398590e+01 </wgt>
<wgt id='1388'> -9.2442221e+01 </wgt>
<wgt id='1389'> -9.3680478e+01 </wgt>
<wgt id='1390'> -9.3592743e+01 </wgt>
<wgt id='1391'> -9.2085015e+01 </wgt>
<wgt id='1392'> -9.2636901e+01 </wgt>
<wgt id='1393'> -9.3087741e+01 </wgt>
<wgt id='1394'> -9.2854940e+01 </wgt>
<wgt id='1395'> -9.2954839e+01 </wgt>
<wgt id='1396'> -9.2950428e+01 </wgt>
<wgt id='1397'> -9.2862566e+01 </wgt>
<wgt id='1398'> -9.2098187e+01 </wgt>
<wgt id='1399'> -9.3484846e+01 </wgt>
<wgt id='1400'> -9.2689254e+01 </wgt>
<wgt id='1401'> -9.3048852e+01 </wgt>
<wgt id='1402'> -9.2969574e+01 </wgt>
<wgt id='1403'> -9.2865641e+01 </wgt>
<wgt id='1404'> -9.0794324e+01 </wgt>
<wgt id='1405'> -9.3980276e+01 </wgt>
<wgt id='1406'> -9.2343340e+01 </wgt>
<wgt id='1407'> -9.3891376e+01 </wgt>
<wgt id='1408'> -9.2112965e+01 </wgt>
<wgt id='1409'> -9.4492105e+01 </wgt>
<wgt id='1410'> -9.2669884e+01 </wgt>
<wgt id='1411'> -9.3314352e+01 </wgt>
<wgt id='1412'> -9.3774435e+01 </wgt>
<wgt id='1413'> -9.1715349e+01 </wgt>
<wgt id='1414'> -9.2752506e+01 </wgt>
<wgt id='1415'> -9.3031089e+01 </wgt>
<wgt id='1416'> -9.1716800e+01 </wgt>
<wgt id='1417'> -9.3574837e+01 </wgt>
<wgt id='1418'> -9.2513965e+01 </wgt>
<wgt id='1419'> -9.3641223e+01 </wgt>
<wgt id='1420'> -9.2218083e+01 </wgt>
<wgt id='1421'> -9.3521023e+01 </wgt>
<wgt id='1422'> -9.3536753e+01 </wgt>
<wgt id='1423'> -9.2194134e+01 </wgt>
<wgt id='1424'> -9.3156116e+01 </wgt>
<wgt id='1425'> -9.2348175e+01 </wgt>
<wgt id='1426'> -9.4147398e+01 </wgt>
<wgt id='1427'> -9.3344768e+01 </wgt>
<wgt id='1428'> -9.2770664e+01 </wgt>
<wgt id='1429'> -9.1803765e+01 </wgt>
<wgt id='1430'> -9.3855557e+01 </wgt>
<wgt id='1431'> -9.3973099e+01 </wgt>
<wgt id='1432'> -9.3804586e+01 </wgt>
<wgt id='1433'> -9.4355083e+01 </wgt>
<wgt id='1434'> -9.3704005e+01 </wgt>
<wgt id='1435'> -9.2465035e+01 </wgt>
<wgt id='1436'> -5.7478259e+01 </wgt>
<wgt id='1437'> -5.7466710e+01 </wgt>
<wgt id='1438'> -5.7578031e+01 </wgt>
<wgt id='1439'> -5.7484417e+01 </wgt>
<wgt id='1440'> -5.7209743e+01 </wgt>
<wgt id='1441'> -5.8017147e+01 </wgt>
<wgt id='1442'> -5.7142646e+01 </wgt>
<wgt id='1443'> -5.7398875e+01 </wgt>
<wgt id='1444'> -5.7294417e+01 </wgt>
<wgt id='1445'> -5.6472322e+01 </wgt>
<wgt id='1446'> -5.7911987e+01 </wgt>
<wgt id='1447'> -5.7356585e+01 </wgt>
<wgt id='1448'> -5.7305764e+01 </wgt>
<wgt id='1449'> -5.7597529e+01 </wgt>
<wgt id='1450'> -5.7544606e+01 </wgt>
<wgt id='1451'> -5.7651765e+01 </wgt>
<wgt id='1452'> -5.7262251e+01 </wgt>
<wgt id='1453'> -5.7756708e+01 </wgt>
<wgt id='1454'> -5.7733591e+01 </wgt>
<wgt id='1455'> -5.7591235e+01 </wgt>
<wgt id='1456'> -5.7680330e+01 </wgt>
<wgt id='1457'> -5.8007951e+01 </wgt>
<wgt id='1458'> -5.8104303e+01 </wgt>
<wgt id='1459'> -5.7559679e+01 </wgt>
<wgt id='1460'> -5.7360880e+01 </wgt>
<wgt id='1461'> -5.7507558e+01 </wgt>
<wgt id='1462'> -5.6770811e+01 </wgt>
<wgt id='1463'> -5.8003478e+01 </wgt>
<wgt id='1464'> -5.6738253e+01 </wgt>
<wgt id='1465'> -7.4335085e+01 </wgt>
<wgt id='1466'> -7.5899850e+01 </wgt>
<wgt id='1467'> -7.5649064e+01 </wgt>
<wgt id='1468'> -7.5301497e+01 </wgt>
<wgt id='1469'> -7.7055310e+01 </wgt>
<wgt id='1470'> -7.5510521e+01 </wgt>
<wgt id='1471'> -7.6014512e+01 </wgt>
<wgt id='1472'> -7.5017919e+01 </wgt>
<wgt id='1473'> -7.6475255e+01 </wgt>
<wgt id='1474'> -7.6159715e+01 </wgt>
<wgt id='1475'> -7.5805604e+01 </wgt>
<wgt id='1476'> -7.5961127e+01 </wgt>
<wgt id='1477'> -7.4675665e+01 </wgt>
<wgt id='1478'> -7.5554657e+01 </wgt>
<wgt id='1479'> -7.5849404e+01 </wgt>
<wgt id='1480'> -7.5551591e+01 </wgt>
<wgt id='1481'> -7.5681467e+01 </wgt>
<wgt id='1482'> -7.5282276e+01 </wgt>
<wgt id='1483'> -7.6192357e+01 </wgt>
<wgt id='1484'> -7.7382150e+01 </wgt>
<wgt id='1485'> -7.5413342e+01 </wgt>
<wgt id='1486'> -7.6361878e+01 </wgt>
<wgt id='1487'> -7.6246036e+01 </wgt>
<wgt id='1488'> -7.6059107e+01 </wgt>
<wgt id='1489'> -7.6331784e+01 </wgt>
<wgt id='1490'> -7.5744445e+01 </wgt>
<wgt id='1491'> -7.6285895e+01 </wgt>
<wgt id='1492'> -7.6011186e+01 </wgt>
<wgt id='1493'> -7.5679269e+01 </wgt>
<wgt id='1494'> -7.4975733e+01 </wgt>
<wgt id='1495'> -7.5942443e+01 </wgt>
<wgt id='1496'> -7.5657039e+01 </wgt>
<wgt id='1497'> -7.5832098e+01 </wgt>
<wgt id='1498'> -7.6355271e+01 </wgt>
<wgt id='1499'> -7.5522767e+01 </wgt>
<wgt id='1500'> -7.6250169e+01 </wgt>
<wgt id='1501'> -7.5770426e+01 </wgt>
<wgt id='1502'> -7.5942218e+01 </wgt>
<wgt id='1503'> -7.6246611e+01 </wgt>
<wgt id='1504'> -7.5451351e+01 </wgt>
<wgt id='1505'> -7.5953705e+01 </wgt>
<wgt id='1506'> -7.6032430e+01 </wgt>
<wgt id='1507'> -7.5843435e+01 </wgt>
<wgt id='1508'> -7.5833055e+01 </wgt>
<wgt id='1509'> -7.5801386e+01 </wgt>
<wgt id='1510'> -7.6012609e+01 </wgt>
<wgt id='1511'> -7.5876992e+01 </wgt>
<wgt id='1512'> -7.5942298e+01 </wgt>
<wgt id='1513'> -7.5855462e+01 </wgt>
<wgt id='1514'> -7.5851334e+01 </wgt>
<wgt id='1515'> -7.5882805e+01 </wgt>
<wgt id='1516'> -7.5808907e+01 </wgt>
<wgt id='1517'> -7.5955010e+01 </wgt>
<wgt id='1518'> -7.5721394e+01 </wgt>
<wgt id='1519'> -7.5922128e+01 </wgt>
<wgt id='1520'> -7.5847854e+01 </wgt>
<wgt id='1521'> -7.5921564e+01 </wgt>
<wgt id='1522'> -7.5885258e+01 </wgt>
<wgt id='1523'> -7.5929875e+01 </wgt>
<wgt id='1524'> -7.5928467e+01 </wgt>
<wgt id='1525'> -7.5863138e+01 </wgt>
<wgt id='1526'> -7.5870218e+01 </wgt>
<wgt id='1527'> -7.5939778e+01 </wgt>
<wgt id='1528'> -7.5894320e+01 </wgt>
<wgt id='1529'> -7.5901383e+01 </wgt>
<wgt id='1530'> -7.5870160e+01 </wgt>
<wgt id='1531'> -7.5948336e+01 </wgt>
<wgt id='1532'> -7.5894604e+01 </wgt>
<wgt id='1533'> -7.5874722e+01 </wgt>
<wgt id='1534'> -7.5965066e+01 </wgt>
<wgt id='1535'> -7.5911508e+01 </wgt>
<wgt id='1536'> -7.5953088e+01 </wgt>
<wgt id='1537'> -7.5870665e+01 </wgt>
<wgt id='1538'> -7.5906405e+01 </wgt>
<wgt id='1539'> -7.5905259e+01 </wgt>
<wgt id='1540'> -7.5883838e+01 </wgt>
<wgt id='1541'> -7.5892256e+01 </wgt>
<wgt id='1542'> -7.5906256e+01 </wgt>
<wgt id='1543'> -7.5891392e+01 </wgt>
<wgt id='1544'> -7.5880352e+01 </wgt>
<wgt id='1545'> -7.5937829e+01 </wgt>
<wgt id='1546'> -7.5914368e+01 </wgt>
<wgt id='1547'> -7.5895416e+01 </wgt>
<wgt id='1548'> -7.5870704e+01 </wgt>
<wgt id='1549'> -7.5898254e+01 </wgt>
<wgt id='1550'> -7.5868093e+01 </wgt>
<wgt id='1551'> -7.5926229e+01 </wgt>
<wgt id='1552'> -7.5928488e+01 </wgt>
<wgt id='1553'> -7.5919724e+01 </wgt>
<wgt id='1554'> -7.5889963e+01 </wgt>
<wgt id='1555'> -7.5921114e+01 </wgt>
<wgt id='1556'> -7.5881953e+01 </wgt>
<wgt id='1557'> -7.5892377e+01 </wgt>
<wgt id='1558'> -7.5908159e+01 </wgt>
<wgt id='1559'> -7.5896104e+01 </wgt>
<wgt id='1560'> -7.5891712e+01 </wgt>
<wgt id='1561'> -7.5910652e+01 </wgt>
<wgt id='1562'> -7.5894682e+01 </wgt>
<wgt id='1563'> -7.5887434e+01 </wgt>
<wgt id='1564'> -7.5896398e+01 </wgt>
<wgt id='1565'> -7.5895593e+01 </wgt>
<wgt id='1566'> -7.5894884e+01 </wgt>
<wgt id='1567'> -7.2506169e+01 </wgt>
<wgt id='1568'> -7.9331050e+01 </wgt>
<wgt id='1569'> -7.9777098e+01 </wgt>
<wgt id='1570'> -7.9877531e+01 </wgt>
<wgt id='1571'> -7.9625577e+01 </wgt>
<wgt id='1572'> -7.9858890e+01 </wgt>
<wgt id='1573'> -8.0336164e+01 </wgt>
<wgt id='1574'> -8.0645234e+01 </wgt>
<wgt id='1575'> -8.0057556e+01 </wgt>
<wgt id='1576'> -8.0061539e+01 </wgt>
<wgt id='1577'> -7.9717723e+01 </wgt>
<wgt id='1578'> -7.9749100e+01 </wgt>
<wgt id='1579'> -7.9439401e+01 </wgt>
<wgt id='1580'> -8.0878502e+01 </wgt>
<wgt id='1581'> -7.9817167e+01 </wgt>
<wgt id='1582'> -7.9976046e+01 </wgt>
<wgt id='1583'> -7.9447478e+01 </wgt>
<wgt id='1584'> -8.1073825e+01 </wgt>
<wgt id='1585'> -7.9490566e+01 </wgt>
<wgt id='1586'> -7.9642096e+01 </wgt>
<wgt id='1587'> -8.0317774e+01 </wgt>
<wgt id='1588'> -7.8615077e+01 </wgt>
<wgt id='1589'> -7.9748322e+01 </wgt>
<wgt id='1590'> -8.0030361e+01 </wgt>
<wgt id='1591'> -7.8498985e+01 </wgt>
<wgt id='1592'> -8.0161680e+01 </wgt>
<wgt id='1593'> -7.9511789e+01 </wgt>
<wgt id='1594'> -7.9590036e+01 </wgt>
<wgt id='1595'> -7.9531220e+01 </wgt>
<wgt id='1596'> -7.9698540e+01 </wgt>
<wgt id='1597'> -8.0102689e+01 </wgt>
<wgt id='1598'> -7.9549275e+01 </wgt>
<wgt id='1599'> -7.9466240e+01 </wgt>
<wgt id='1600'> -8.0055138e+01 </wgt>
<wgt id='1601'> -7.9444822e+01 </wgt>
<wgt id='1602'> -8.0214742e+01 </wgt>
<wgt id='1603'> -7.9470862e+01 </wgt>
<wgt id='1604'> -8.0615628e+01 </wgt>
<wgt id='1605'> -7.9435108e+01 </wgt>
<wgt id='1606'> -8.0103641e+01 </wgt>
<wgt id='1607'> -7.9700519e+01 </wgt>
<wgt id='1608'> -7.9435055e+01 </wgt>
<wgt id='1609'> -7.9674172e+01 </wgt>
<wgt id='1610'> -7.9890367e+01 </wgt>
<wgt id='1611'> -7.9860133e+01 </wgt>
<wgt id='1612'> -7.9515895e+01 </wgt>
<wgt id='1613'> -7.9759758e+01 </wgt>
<wgt id='1614'> -7.9707710e+01 </wgt>
<wgt id='1615'> -7.9642782e+01 </wgt>
<wgt id='1616'> -7.9917792e+01 </wgt>
<wgt id='1617'> -7.9804408e+01 </wgt>
<wgt id='1618'> -7.9755232e+01 </wgt>
<wgt id='1619'> -7.9644237e+01 </wgt>
<wgt id='1620'> -7.9836590e+01 </wgt>
<wgt id='1621'> -7.9838330e+01 </wgt>
<wgt id='1622'> -7.9751500e+01 </wgt>
<wgt id='1623'> -7.9798790e+01 </wgt>
<wgt id='1624'> -7.9764573e+01 </wgt>
<wgt id='1625'> -7.9823435e+01 </wgt>
<wgt id='1626'> -7.9792424e+01 </wgt>
<wgt id='1627'> -7.9760996e+01 </wgt>
<wgt id='1628'> -7.9755891e+01 </wgt>
<wgt id='1629'> -7.9763358e+01 </wgt>
<wgt id='1630'> -7.9759659e+01 </wgt>
<wgt id='1631'> -7.9784606e+01 </wgt>
<wgt id='1632'> -7.9797607e+01 </wgt>
<wgt id='1633'> -7.9748700e+01 </wgt>
<wgt id='1634'> -7.9835574e+01 </wgt>
<wgt id='1635'> -7.9747627e+01 </wgt>
<wgt id='1636'> -7.9776308e+01 </wgt>
<wgt id='1637'> -7.9743497e+01 </wgt>
<wgt id='1638'> -7.9790584e+01 </wgt>
<wgt id='1639'> -7.9741169e+01 </wgt>
<wgt id='1640'> -7.9756172e+01 </wgt>
<wgt id='1641'> -7.9828876e+01 </wgt>
<wgt id='1642'> -7.9744737e+01 </wgt>
<wgt id='1643'> -7.9747578e+01 </wgt>
<wgt id='1644'> -7.9766293e+01 </wgt>
<wgt id='1645'> -7.9770200e+01 </wgt>
<wgt id='1646'> -7.9809371e+01 </wgt>
<wgt id='1647'> -7.9777068e+01 </wgt>
<wgt id='1648'> -7.9753094e+01 </wgt>
<wgt id='1649'> -7.9847236e+01 </wgt>
<wgt id='1650'> -7.9768059e+01 </wgt>
<wgt id='1651'> -7.9780899e+01 </wgt>
<wgt id='1652'> -7.9750861e+01 </wgt>
<wgt id='1653'> -7.9775423e+01 </wgt>
<wgt id='1654'> -7.9771365e+01 </wgt>
<wgt id='1655'> -7.9809635e+01 </wgt>
<wgt id='1656'> -7.9752642e+01 </wgt>
<wgt id='1657'> -7.9785200e+01 </wgt>
<wgt id='1658'> -7.9794754e+01 </wgt>
<wgt id='1659'> -7.9763036e+01 </wgt>
<wgt id='1660'> -7.9808689e+01 </wgt>
<wgt id='1661'> -7.9792328e+01 </wgt>
<wgt id='1662'> -7.9764608e+01 </wgt>
<wgt id='1663'> -7.9774492e+01 </wgt>
<wgt id='1664'> -7.9776427e+01 </wgt>
<wgt id='1665'> -7.9732801e+01 </wgt>
<wgt id='1666'> -7.9783439e+01 </wgt>
<wgt id='1667'> -7.9816253e+01 </wgt>
<wgt id='1668'> -7.9758974e+01 </wgt>
<wgt id='1669'> -7.9744378e+01 </wgt>
<wgt id='1670'> -7.6008229e+01 </wgt>
<wgt id='1671'> -8.3529485e+01 </wgt>
<wgt id='1672'> -7.6010605e+01 </wgt>
<wgt id='1673'> -7.5959631e+01 </wgt>
<wgt id='1674'> -7.4523750e+01 </wgt>
<wgt id='1675'> -7.5953713e+01 </wgt>
<wgt id='1676'> -7.7208023e+01 </wgt>
<wgt id='1677'> -7.6277823e+01 </wgt>
<wgt id='1678'> -7.6317570e+01 </wgt>
<wgt id='1679'> -7.6137663e+01 </wgt>
<wgt id='1680'> -7.6235260e+01 </wgt>
<wgt id='1681'> -7.6498872e+01 </wgt>
<wgt id='1682'> -7.6136060e+01 </wgt>
<wgt id='1683'> -7.5308967e+01 </wgt>
<wgt id='1684'> -7.5984095e+01 </wgt>
<wgt id='1685'> -7.6089183e+01 </wgt>
<wgt id='1686'> -7.4260642e+01 </wgt>
<wgt id='1687'> -7.6202473e+01 </wgt>
<wgt id='1688'> -7.6314209e+01 </wgt>
<wgt id='1689'> -7.5436017e+01 </wgt>
<wgt id='1690'> -7.5990945e+01 </wgt>
<wgt id='1691'> -7.6231081e+01 </wgt>
<wgt id='1692'> -7.6893074e+01 </wgt>
<wgt id='1693'> -7.6041024e+01 </wgt>
<wgt id='1694'> -7.5978475e+01 </wgt>
<wgt id='1695'> -7.6061945e+01 </wgt>
<wgt id='1696'> -7.5891094e+01 </wgt>
<wgt id='1697'> -7.6146744e+01 </wgt>
<wgt id='1698'> -7.5697324e+01 </wgt>
<wgt id='1699'> -7.6233870e+01 </wgt>
<wgt id='1700'> -7.5949906e+01 </wgt>
<wgt id='1701'> -7.5750828e+01 </wgt>
<wgt id='1702'> -7.6027412e+01 </wgt>
<wgt id='1703'> -7.2506169e+01 </wgt>
<wgt id='1704'> -7.9331050e+01 </wgt>
<wgt id='1705'> -7.9792802e+01 </wgt>
<wgt id='1706'> -7.9883442e+01 </wgt>
<wgt id='1707'> -8.1849058e+01 </wgt>
<wgt id='1708'> -7.9571301e+01 </wgt>
<wgt id='1709'> -7.8882519e+01 </wgt>
<wgt id='1710'> -7.9300362e+01 </wgt>
<wgt id='1711'> -7.9758422e+01 </wgt>
<wgt id='1712'> -7.9739944e+01 </wgt>
<wgt id='1713'> -7.9768758e+01 </wgt>
<wgt id='1714'> -7.9151548e+01 </wgt>
<wgt id='1715'> -7.9848474e+01 </wgt>
<wgt id='1716'> -8.0993492e+01 </wgt>
<wgt id='1717'> -7.9850699e+01 </wgt>
<wgt id='1718'> -8.0036758e+01 </wgt>
<wgt id='1719'> -7.9787733e+01 </wgt>
<wgt id='1720'> -7.9786293e+01 </wgt>
<wgt id='1721'> -7.9759698e+01 </wgt>
<wgt id='1722'> -7.9814157e+01 </wgt>
<wgt id='1723'> -7.9856686e+01 </wgt>
<wgt id='1724'> -7.9926689e+01 </wgt>
<wgt id='1725'> -7.9195651e+01 </wgt>
<wgt id='1726'> -7.9376162e+01 </wgt>
<wgt id='1727'> -8.0094072e+01 </wgt>
<wgt id='1728'> -7.9796279e+01 </wgt>
<wgt id='1729'> -7.9817913e+01 </wgt>
<wgt id='1730'> -7.9884608e+01 </wgt>
<wgt id='1731'> -7.9991749e+01 </wgt>
<wgt id='1732'> -7.9697245e+01 </wgt>
<wgt id='1733'> -7.9842251e+01 </wgt>
<wgt id='1734'> -7.9701894e+01 </wgt>
<wgt id='1735'> -7.9995365e+01 </wgt>
<wgt id='1736'> -7.6008229e+01 </wgt>
<wgt id='1737'> -8.3529485e+01 </wgt>
<wgt id='1738'> -7.6207144e+01 </wgt>
<wgt id='1739'> -7.6391844e+01 </wgt>
<wgt id='1740'> -7.6023713e+01 </wgt>
<wgt id='1741'> -7.6125913e+01 </wgt>
<wgt id='1742'> -7.6288213e+01 </wgt>
<wgt id='1743'> -7.6354558e+01 </wgt>
<wgt id='1744'> -7.6059919e+01 </wgt>
<wgt id='1745'> -7.5991451e+01 </wgt>
<wgt id='1746'> -7.6412137e+01 </wgt>
<wgt id='1747'> -7.6825154e+01 </wgt>
<wgt id='1748'> -7.5584725e+01 </wgt>
<wgt id='1749'> -7.6385221e+01 </wgt>
<wgt id='1750'> -7.6027461e+01 </wgt>
<wgt id='1751'> -7.6128982e+01 </wgt>
<wgt id='1752'> -7.6284020e+01 </wgt>
<wgt id='1753'> -7.6039666e+01 </wgt>
<wgt id='1754'> -7.6298859e+01 </wgt>
<wgt id='1755'> -7.6007186e+01 </wgt>
<wgt id='1756'> -7.6353291e+01 </wgt>
<wgt id='1757'> -7.6068770e+01 </wgt>
<wgt id='1758'> -7.6317495e+01 </wgt>
<wgt id='1759'> -7.5969618e+01 </wgt>
<wgt id='1760'> -7.6354034e+01 </wgt>
<wgt id='1761'> -7.6629677e+01 </wgt>
<wgt id='1762'> -7.5451474e+01 </wgt>
<wgt id='1763'> -7.6371368e+01 </wgt>
<wgt id='1764'> -7.6118242e+01 </wgt>
<wgt id='1765'> -7.6460444e+01 </wgt>
<wgt id='1766'> -7.5979606e+01 </wgt>
<wgt id='1767'> -7.6207144e+01 </wgt>
<wgt id='1768'> -7.9236456e+01 </wgt>
<wgt id='1769'> -7.2684783e+01 </wgt>
<wgt id='1770'> -8.1427742e+01 </wgt>
<wgt id='1771'> -7.6806678e+01 </wgt>
<wgt id='1772'> -7.6385287e+01 </wgt>
<wgt id='1773'> -7.6349546e+01 </wgt>
<wgt id='1774'> -7.6156330e+01 </wgt>
<wgt id='1775'> -7.6238727e+01 </wgt>
<wgt id='1776'> -7.5353252e+01 </wgt>
<wgt id='1777'> -7.6996282e+01 </wgt>
<wgt id='1778'> -7.5589368e+01 </wgt>
<wgt id='1779'> -7.7451069e+01 </wgt>
<wgt id='1780'> -7.2633824e+01 </wgt>
<wgt id='1781'> -7.9039464e+01 </wgt>
<wgt id='1782'> -7.9256016e+01 </wgt>
<wgt id='1783'> -7.8829553e+01 </wgt>
<wgt id='1784'> -7.8867483e+01 </wgt>
<wgt id='1785'> -7.9217267e+01 </wgt>
<wgt id='1786'> -7.9112231e+01 </wgt>
<wgt id='1787'> -7.8972261e+01 </wgt>
<wgt id='1788'> -7.8645625e+01 </wgt>
<wgt id='1789'> -7.9421638e+01 </wgt>
<wgt id='1790'> -7.9471553e+01 </wgt>
<wgt id='1791'> -7.8609911e+01 </wgt>
<wgt id='1792'> -7.9417356e+01 </wgt>
<wgt id='1793'> -7.8667885e+01 </wgt>
<wgt id='1794'> -7.8807769e+01 </wgt>
<wgt id='1795'> -7.9276620e+01 </wgt>
<wgt id='1796'> -7.8935155e+01 </wgt>
<wgt id='1797'> -7.9116844e+01 </wgt>
<wgt id='1798'> -7.9224882e+01 </wgt>
<wgt id='1799'> -7.8841817e+01 </wgt>
<wgt id='1800'> -7.9073210e+01 </wgt>
<wgt id='1801'> -7.8995424e+01 </wgt>
<wgt id='1802'> -7.8952828e+01 </wgt>
<wgt id='1803'> -7.9032986e+01 </wgt>
<wgt id='1804'> -7.9770929e+01 </wgt>
<wgt id='1805'> -7.8318737e+01 </wgt>
<wgt id='1806'> -8.0091770e+01 </wgt>
<wgt id='1807'> -7.7880347e+01 </wgt>
<wgt id='1808'> -8.0111474e+01 </wgt>
<wgt id='1809'> -7.8067481e+01 </wgt>
<wgt id='1810'> -7.8844655e+01 </wgt>
<wgt id='1811'> -8.2541930e+01 </wgt>
<wgt id='1812'> -7.4762251e+01 </wgt>
<wgt id='1813'> -8.4821401e+01 </wgt>
<wgt id='1814'> -7.8986937e+01 </wgt>
<wgt id='1815'> -8.0639175e+01 </wgt>
<wgt id='1816'> -7.8238249e+01 </wgt>
<wgt id='1817'> -7.8717320e+01 </wgt>
<wgt id='1818'> -7.8689692e+01 </wgt>
<wgt id='1819'> -7.8326344e+01 </wgt>
<wgt id='1820'> -8.1266685e+01 </wgt>
<wgt id='1821'> -7.9201224e+01 </wgt>
<wgt id='1822'> -7.8776994e+01 </wgt>
<wgt id='1823'> -7.7924060e+01 </wgt>
<wgt id='1824'> -7.6858993e+01 </wgt>
<wgt id='1825'> -7.6822401e+01 </wgt>
<wgt id='1826'> -7.6786115e+01 </wgt>
<wgt id='1827'> -7.6749420e+01 </wgt>
<wgt id='1828'> -7.6713474e+01 </wgt>
<wgt id='1829'> -7.6676781e+01 </wgt>
<wgt id='1830'> -7.6640592e+01 </wgt>
<wgt id='1831'> -7.6603995e+01 </wgt>
<wgt id='1832'> -7.6567985e+01 </wgt>
<wgt id='1833'> -7.6531348e+01 </wgt>
<wgt id='1834'> -7.6495254e+01 </wgt>
<wgt id='1835'> -7.6458628e+01 </wgt>
<wgt id='1836'> -7.6422416e+01 </wgt>
<wgt id='1837'> -7.6386117e+01 </wgt>
<wgt id='1838'> -7.6349484e+01 </wgt>
<wgt id='1839'> -7.6313324e+01 </wgt>
<wgt id='1840'> -7.6276830e+01 </wgt>
<wgt id='1841'> -7.6240932e+01 </wgt>
<wgt id='1842'> -7.6204274e+01 </wgt>
<wgt id='1843'> -7.6168346e+01 </wgt>
<wgt id='1844'> -7.6131707e+01 </wgt>
<wgt id='1845'> -7.6095693e+01 </wgt>
<wgt id='1846'> -7.6059405e+01 </wgt>
<wgt id='1847'> -7.6023342e+01 </wgt>
<wgt id='1848'> -7.5986802e+01 </wgt>
<wgt id='1849'> -7.5950901e+01 </wgt>
<wgt id='1850'> -7.5914514e+01 </wgt>
<wgt id='1851'> -7.5878519e+01 </wgt>
<wgt id='1852'> -7.5842135e+01 </wgt>
<wgt id='1853'> -7.5806132e+01 </wgt>
<wgt id='1854'> -7.5769929e+01 </wgt>
<wgt id='1855'> -7.9507845e+01 </wgt>
<wgt id='1856'> -7.9588407e+01 </wgt>
<wgt id='1857'> -7.9351464e+01 </wgt>
<wgt id='1858'> -7.9591020e+01 </wgt>
<wgt id='1859'> -8.0060959e+01 </wgt>
<wgt id='1860'> -8.0371552e+01 </wgt>
<wgt id='1861'> -7.9802434e+01 </wgt>
<wgt id='1862'> -7.9807091e+01 </wgt>
<wgt id='1863'> -7.9449857e+01 </wgt>
<wgt id='1864'> -7.9480896e+01 </wgt>
<wgt id='1865'> -7.9166964e+01 </wgt>
<wgt id='1866'> -8.0625369e+01 </wgt>
<wgt id='1867'> -7.9557950e+01 </wgt>
<wgt id='1868'> -7.9714810e+01 </wgt>
<wgt id='1869'> -7.9178240e+01 </wgt>
<wgt id='1870'> -8.0776477e+01 </wgt>
<wgt id='1871'> -7.9241698e+01 </wgt>
<wgt id='1872'> -7.9364714e+01 </wgt>
<wgt id='1873'> -8.0042351e+01 </wgt>
<wgt id='1874'> -7.8360296e+01 </wgt>
<wgt id='1875'> -7.9493256e+01 </wgt>
<wgt id='1876'> -7.9752507e+01 </wgt>
<wgt id='1877'> -7.8228659e+01 </wgt>
<wgt id='1878'> -7.9898291e+01 </wgt>
<wgt id='1879'> -7.9235818e+01 </wgt>
<wgt id='1880'> -7.9306416e+01 </wgt>
<wgt id='1881'> -7.9248363e+01 </wgt>
<wgt id='1882'> -7.9445132e+01 </wgt>
<wgt id='1883'> -7.9838438e+01 </wgt>
<wgt id='1884'> -7.9272834e+01 </wgt>
<wgt id='1885'> -7.9190047e+01 </wgt>
<wgt id='1886'> -7.9801715e+01 </wgt>
<wgt id='1887'> -7.9170398e+01 </wgt>
<wgt id='1888'> -7.9938483e+01 </wgt>
<wgt id='1889'> -7.9201550e+01 </wgt>
<wgt id='1890'> -8.0339892e+01 </wgt>
<wgt id='1891'> -7.9167458e+01 </wgt>
<wgt id='1892'> -7.9833742e+01 </wgt>
<wgt id='1893'> -7.9428813e+01 </wgt>
<wgt id='1894'> -7.9159944e+01 </wgt>
<wgt id='1895'> -7.9404926e+01 </wgt>
<wgt id='1896'> -7.9617680e+01 </wgt>
<wgt id='1897'> -7.9589108e+01 </wgt>
<wgt id='1898'> -7.9255436e+01 </wgt>
<wgt id='1899'> -7.9489292e+01 </wgt>
<wgt id='1900'> -7.9436792e+01 </wgt>
<wgt id='1901'> -7.9378197e+01 </wgt>
<wgt id='1902'> -7.9645868e+01 </wgt>
<wgt id='1903'> -7.9538040e+01 </wgt>
<wgt id='1904'> -7.9484844e+01 </wgt>
<wgt id='1905'> -7.9377043e+01 </wgt>
<wgt id='1906'> -7.9565760e+01 </wgt>
<wgt id='1907'> -7.9567983e+01 </wgt>
<wgt id='1908'> -7.9482548e+01 </wgt>
<wgt id='1909'> -7.9531648e+01 </wgt>
<wgt id='1910'> -7.9497201e+01 </wgt>
<wgt id='1911'> -7.9549136e+01 </wgt>
<wgt id='1912'> -7.9523451e+01 </wgt>
<wgt id='1913'> -7.9496362e+01 </wgt>
<wgt id='1914'> -7.9489283e+01 </wgt>
<wgt id='1915'> -7.9496545e+01 </wgt>
<wgt id='1916'> -7.9491476e+01 </wgt>
<wgt id='1917'> -7.9514665e+01 </wgt>
<wgt id='1918'> -7.9525681e+01 </wgt>
<wgt id='1919'> -7.9481860e+01 </wgt>
<wgt id='1920'> -7.9565428e+01 </wgt>
<wgt id='1921'> -7.9477666e+01 </wgt>
<wgt id='1922'> -7.9504669e+01 </wgt>
<wgt id='1923'> -7.9474484e+01 </wgt>
<wgt id='1924'> -7.9518270e+01 </wgt>
<wgt id='1925'> -7.9470998e+01 </wgt>
<wgt id='1926'> -7.9488310e+01 </wgt>
<wgt id='1927'> -7.9557562e+01 </wgt>
<wgt id='1928'> -7.9474299e+01 </wgt>
<wgt id='1929'> -7.9478340e+01 </wgt>
<wgt id='1930'> -7.9497816e+01 </wgt>
<wgt id='1931'> -7.9504262e+01 </wgt>
<wgt id='1932'> -7.9540353e+01 </wgt>
<wgt id='1933'> -7.9509657e+01 </wgt>
<wgt id='1934'> -7.9483832e+01 </wgt>
<wgt id='1935'> -7.9574750e+01 </wgt>
<wgt id='1936'> -7.9501713e+01 </wgt>
<wgt id='1937'> -7.9512422e+01 </wgt>
<wgt id='1938'> -7.9481699e+01 </wgt>
<wgt id='1939'> -7.9505006e+01 </wgt>
<wgt id='1940'> -7.9502858e+01 </wgt>
<wgt id='1941'> -7.9543600e+01 </wgt>
<wgt id='1942'> -7.9482289e+01 </wgt>
<wgt id='1943'> -7.9514247e+01 </wgt>
<wgt id='1944'> -7.9523711e+01 </wgt>
<wgt id='1945'> -7.9492864e+01 </wgt>
<wgt id='1946'> -7.9537026e+01 </wgt>
<wgt id='1947'> -7.9521062e+01 </wgt>
<wgt id='1948'> -7.9495850e+01 </wgt>
<wgt id='1949'> -7.9502634e+01 </wgt>
<wgt id='1950'> -7.9507228e+01 </wgt>
<wgt id='1951'> -7.9464862e+01 </wgt>
<wgt id='1952'> -7.9514416e+01 </wgt>
<wgt id='1953'> -7.9546108e+01 </wgt>
<wgt id='1954'> -7.9490908e+01 </wgt>
<wgt id='1955'> -7.9475971e+01 </wgt>
<wgt id='1956'> -7.9507617e+01 </wgt>
<wgt id='1957'> -7.9509062e+01 </wgt>
<wgt id='1958'> -7.9508076e+01 </wgt>
<wgt id='1959'> -7.9508118e+01 </wgt>
<wgt id='1960'> -7.9508527e+01 </wgt>
<wgt id='1961'> -7.9507944e+01 </wgt>
<wgt id='1962'> -7.9509299e+01 </wgt>
</rwgt>
</event>
<event npLO=" -1 " npNLO=" 1 ">
 7      1 +1.5146096e+02 3.26241070e+01 7.54677110e-03 1.30675690e-01
       -1 -1    0    0    0  501 +0.0000000000e+00 +0.0000000000e+00 +1.8262871000e+01 1.8262871000e+01 0.0000000000e+00 0.0000e+00 9.0000e+00
        1 -1    0    0  502    0 -0.0000000000e+00 -0.0000000000e+00 -1.1216763000e+03 1.1216763000e+03 0.0000000000e+00 0.0000e+00 9.0000e+00
       23  2    1    2    0    0 +3.8955119000e+01 -5.4871980000e+00 -1.1820138000e+02 1.5394201000e+02 9.0437642000e+01 0.0000e+00 0.0000e+00
       11  1    3    3    0    0 -2.3516575000e+00 +2.4632509000e+01 -2.5933819000e+01 3.5844857000e+01 0.0000000000e+00 0.0000e+00 9.0000e+00
      -11  1    3    3    0    0 +3.4878731000e+01 -4.4718627000e+01 -7.9553565000e+01 9.7698778000e+01 0.0000000000e+00 0.0000e+00 9.0000e+00
       22  1    3    3    0    0 +6.4280454000e+00 +1.4598920000e+01 -1.2713996000e+01 2.0398380000e+01 0.0000000000e+00 0.0000e+00 9.0000e+00
       21  1    1    2  502  501 -3.8955119000e+01 +5.4871980000e+00 -9.8521204000e+02 9.8599715000e+02 0.0000000000e+00 0.0000e+00 9.0000e+00
#aMCatNLO 1  0  0  6  2 0.12570880E+02 0.00000000E+00 -9  7  0 0.00000000E+00 0.00000000E+00 0.00000000E+00 0.00000000E+00 0.00000000E+00
<rwgt>
<wgt id='1001'> +1.5146000e+02 </wgt>
<wgt id='1002'> +1.5146000e+02 </wgt>
<wgt id='1003'> +1.4444000e+02 </wgt>
<wgt id='1004'> +1.5474000e+02 </wgt>
<wgt id='1005'> +1.5863000e+02 </wgt>
<wgt id='1006'> +1.5815000e+02 </wgt>
<wgt id='1007'> +1.4050000e+02 </wgt>
<wgt id='1008'> +1.4416000e+02 </wgt>
<wgt id='1009'> +1.5389000e+02 </wgt>
<wgt id='1010'> +1.5922000e+02 </wgt>
<wgt id='1011'> +1.5192000e+02 </wgt>
<wgt id='1012'> +1.5368000e+02 </wgt>
<wgt id='1013'> +1.4928000e+02 </wgt>
<wgt id='1014'> +1.4937000e+02 </wgt>
<wgt id='1015'> +1.4699000e+02 </wgt>
<wgt id='1016'> +1.4912000e+02 </wgt>
<wgt id='1017'> +1.5191000e+02 </wgt>
<wgt id='1018'> +1.5351000e+02 </wgt>
<wgt id='1019'> +1.4424000e+02 </wgt>
<wgt id='1020'> +1.3640000e+02 </wgt>
<wgt id='1021'> +1.5309000e+02 </wgt>
<wgt id='1022'> +1.5729000e+02 </wgt>
<wgt id='1023'> +1.5864000e+02 </wgt>
<wgt id='1024'> +1.5838000e+02 </wgt>
<wgt id='1025'> +1.5906000e+02 </wgt>
<wgt id='1026'> +1.4903000e+02 </wgt>
<wgt id='1027'> +1.4871000e+02 </wgt>
<wgt id='1028'> +1.5015000e+02 </wgt>
<wgt id='1029'> +1.4822000e+02 </wgt>
<wgt id='1030'> +1.4310000e+02 </wgt>
<wgt id='1031'> +1.5058000e+02 </wgt>
<wgt id='1032'> +1.5531000e+02 </wgt>
<wgt id='1033'> +1.5795000e+02 </wgt>
<wgt id='1034'> +1.4892000e+02 </wgt>
<wgt id='1035'> +1.5623000e+02 </wgt>
<wgt id='1036'> +1.5034000e+02 </wgt>
<wgt id='1037'> +1.6123000e+02 </wgt>
<wgt id='1038'> +1.5246000e+02 </wgt>
<wgt id='1039'> +1.4874000e+02 </wgt>
<wgt id='1040'> +1.4797000e+02 </wgt>
<wgt id='1041'> +1.5401000e+02 </wgt>
<wgt id='1042'> +1.5495000e+02 </wgt>
<wgt id='1043'> +1.5407000e+02 </wgt>
<wgt id='1044'> +1.5292000e+02 </wgt>
<wgt id='1045'> +1.5248000e+02 </wgt>
<wgt id='1046'> +1.5214000e+02 </wgt>
<wgt id='1047'> +1.5605000e+02 </wgt>
<wgt id='1048'> +1.4578000e+02 </wgt>
<wgt id='1049'> +1.5303000e+02 </wgt>
<wgt id='1050'> +1.4994000e+02 </wgt>
<wgt id='1051'> +1.5374000e+02 </wgt>
<wgt id='1052'> +1.5381000e+02 </wgt>
<wgt id='1053'> +1.5498000e+02 </wgt>
<wgt id='1054'> +1.5154000e+02 </wgt>
<wgt id='1055'> +1.4748000e+02 </wgt>
<wgt id='1056'> +1.5119000e+02 </wgt>
<wgt id='1057'> +1.5055000e+02 </wgt>
<wgt id='1058'> +1.4120000e+02 </wgt>
<wgt id='1059'> +1.5021000e+02 </wgt>
<wgt id='1060'> +1.5015000e+02 </wgt>
<wgt id='1061'> +1.5575000e+02 </wgt>
<wgt id='1062'> +1.5791000e+02 </wgt>
<wgt id='1063'> +1.4299000e+02 </wgt>
<wgt id='1064'> +1.5151000e+02 </wgt>
<wgt id='1065'> +1.4100000e+02 </wgt>
<wgt id='1066'> +1.3845000e+02 </wgt>
<wgt id='1067'> +1.5407000e+02 </wgt>
<wgt id='1068'> +1.4703000e+02 </wgt>
<wgt id='1069'> +1.6827000e+02 </wgt>
<wgt id='1070'> +1.5045000e+02 </wgt>
<wgt id='1071'> +1.5546000e+02 </wgt>
<wgt id='1072'> +1.4743000e+02 </wgt>
<wgt id='1073'> +1.5087000e+02 </wgt>
<wgt id='1074'> +1.4673000e+02 </wgt>
<wgt id='1075'> +1.4548000e+02 </wgt>
<wgt id='1076'> +1.5226000e+02 </wgt>
<wgt id='1077'> +1.5091000e+02 </wgt>
<wgt id='1078'> +1.4947000e+02 </wgt>
<wgt id='1079'> +1.5019000e+02 </wgt>
<wgt id='1080'> +1.5915000e+02 </wgt>
<wgt id='1081'> +1.4803000e+02 </wgt>
<wgt id='1082'> +1.5661000e+02 </wgt>
<wgt id='1083'> +1.5659000e+02 </wgt>
<wgt id='1084'> +1.5933000e+02 </wgt>
<wgt id='1085'> +1.5046000e+02 </wgt>
<wgt id='1086'> +1.5267000e+02 </wgt>
<wgt id='1087'> +1.4765000e+02 </wgt>
<wgt id='1088'> +1.5334000e+02 </wgt>
<wgt id='1089'> +1.5041000e+02 </wgt>
<wgt id='1090'> +1.5242000e+02 </wgt>
<wgt id='1091'> +1.4229000e+02 </wgt>
<wgt id='1092'> +1.5453000e+02 </wgt>
<wgt id='1093'> +1.6148000e+02 </wgt>
<wgt id='1094'> +1.5598000e+02 </wgt>
<wgt id='1095'> +1.4848000e+02 </wgt>
<wgt id='1096'> +1.5601000e+02 </wgt>
<wgt id='1097'> +1.4593000e+02 </wgt>
<wgt id='1098'> +1.5456000e+02 </wgt>
<wgt id='1099'> +1.4897000e+02 </wgt>
<wgt id='1100'> +1.5279000e+02 </wgt>
<wgt id='1101'> +1.5217000e+02 </wgt>
<wgt id='1102'> +1.4462000e+02 </wgt>
<wgt id='1103'> +1.4832000e+02 </wgt>
<wgt id='1104'> +1.5451000e+02 </wgt>
<wgt id='1105'> +1.5146096e+02 </wgt>
<wgt id='1106'> +6.0992844e+01 </wgt>
<wgt id='1107'> +9.6918856e+01 </wgt>
<wgt id='1108'> +7.8315476e+01 </wgt>
<wgt id='1109'> +6.3075014e+01 </wgt>
<wgt id='1110'> +1.0022673e+02 </wgt>
<wgt id='1111'> +7.2207051e+01 </wgt>
<wgt id='1112'> +5.8154895e+01 </wgt>
<wgt id='1113'> +9.2409929e+01 </wgt>
<wgt id='1114'> +8.1184294e+01 </wgt>
<wgt id='1115'> +8.2980508e+01 </wgt>
<wgt id='1116'> +8.2057969e+01 </wgt>
<wgt id='1117'> +7.6939832e+01 </wgt>
<wgt id='1118'> +7.7416281e+01 </wgt>
<wgt id='1119'> +8.0874652e+01 </wgt>
<wgt id='1120'> +8.6104861e+01 </wgt>
<wgt id='1121'> +8.1229785e+01 </wgt>
<wgt id='1122'> +7.9232009e+01 </wgt>
<wgt id='1123'> +8.4150246e+01 </wgt>
<wgt id='1124'> +7.6035042e+01 </wgt>
<wgt id='1125'> +7.8498768e+01 </wgt>
<wgt id='1126'> +8.0964276e+01 </wgt>
<wgt id='1127'> +7.8981607e+01 </wgt>
<wgt id='1128'> +8.0380875e+01 </wgt>
<wgt id='1129'> +8.4194676e+01 </wgt>
<wgt id='1130'> +8.1584873e+01 </wgt>
<wgt id='1131'> +8.2004413e+01 </wgt>
<wgt id='1132'> +8.3471563e+01 </wgt>
<wgt id='1133'> +8.1693954e+01 </wgt>
<wgt id='1134'> +7.9519836e+01 </wgt>
<wgt id='1135'> +8.1308100e+01 </wgt>
<wgt id='1136'> +8.4562969e+01 </wgt>
<wgt id='1137'> +8.4428304e+01 </wgt>
<wgt id='1138'> +7.9656199e+01 </wgt>
<wgt id='1139'> +8.3680938e+01 </wgt>
<wgt id='1140'> +8.0977987e+01 </wgt>
<wgt id='1141'> +7.9586113e+01 </wgt>
<wgt id='1142'> +8.2537177e+01 </wgt>
<wgt id='1143'> +7.9194664e+01 </wgt>
<wgt id='1144'> +8.2450010e+01 </wgt>
<wgt id='1145'> +8.1460530e+01 </wgt>
<wgt id='1146'> +8.2424755e+01 </wgt>
<wgt id='1147'> +8.7233806e+01 </wgt>
<wgt id='1148'> +7.9707342e+01 </wgt>
<wgt id='1149'> +8.0996121e+01 </wgt>
<wgt id='1150'> +8.4303027e+01 </wgt>
<wgt id='1151'> +8.1546833e+01 </wgt>
<wgt id='1152'> +7.9816794e+01 </wgt>
<wgt id='1153'> +7.7973475e+01 </wgt>
<wgt id='1154'> +8.0116317e+01 </wgt>
<wgt id='1155'> +7.9882055e+01 </wgt>
<wgt id='1156'> +8.2913207e+01 </wgt>
<wgt id='1157'> +8.1603087e+01 </wgt>
<wgt id='1158'> +7.9949554e+01 </wgt>
<wgt id='1159'> +7.5967987e+01 </wgt>
<wgt id='1160'> +8.2511957e+01 </wgt>
<wgt id='1161'> +8.5458597e+01 </wgt>
<wgt id='1162'> +7.7407850e+01 </wgt>
<wgt id='1163'> +8.3401710e+01 </wgt>
<wgt id='1164'> +8.0970903e+01 </wgt>
<wgt id='1165'> +7.8519967e+01 </wgt>
<wgt id='1166'> +8.3199793e+01 </wgt>
<wgt id='1167'> +8.2650230e+01 </wgt>
<wgt id='1168'> +8.3022057e+01 </wgt>
<wgt id='1169'> +7.9557933e+01 </wgt>
<wgt id='1170'> +8.1606442e+01 </wgt>
<wgt id='1171'> +8.4358562e+01 </wgt>
<wgt id='1172'> +8.5285550e+01 </wgt>
<wgt id='1173'> +8.0629085e+01 </wgt>
<wgt id='1174'> +8.2902137e+01 </wgt>
<wgt id='1175'> +8.3735972e+01 </wgt>
<wgt id='1176'> +8.3995475e+01 </wgt>
<wgt id='1177'> +7.9005574e+01 </wgt>
<wgt id='1178'> +7.8987577e+01 </wgt>
<wgt id='1179'> +8.4599313e+01 </wgt>
<wgt id='1180'> +7.9013033e+01 </wgt>
<wgt id='1181'> +7.8695723e+01 </wgt>
<wgt id='1182'> +8.3169308e+01 </wgt>
<wgt id='1183'> +8.2303267e+01 </wgt>
<wgt id='1184'> +8.0461583e+01 </wgt>
<wgt id='1185'> +8.2034628e+01 </wgt>
<wgt id='1186'> +7.5969978e+01 </wgt>
<wgt id='1187'> +8.1490664e+01 </wgt>
<wgt id='1188'> +7.8694766e+01 </wgt>
<wgt id='1189'> +8.0441542e+01 </wgt>
<wgt id='1190'> +8.0103147e+01 </wgt>
<wgt id='1191'> +8.2178449e+01 </wgt>
<wgt id='1192'> +8.5356990e+01 </wgt>
<wgt id='1193'> +8.3850815e+01 </wgt>
<wgt id='1194'> +7.8467564e+01 </wgt>
<wgt id='1195'> +8.2493551e+01 </wgt>
<wgt id='1196'> +8.1584873e+01 </wgt>
<wgt id='1197'> +7.5266010e+01 </wgt>
<wgt id='1198'> +7.9878786e+01 </wgt>
<wgt id='1199'> +8.2219687e+01 </wgt>
<wgt id='1200'> +8.3645458e+01 </wgt>
<wgt id='1201'> +8.3596613e+01 </wgt>
<wgt id='1202'> +8.1583849e+01 </wgt>
<wgt id='1203'> +7.3066525e+01 </wgt>
<wgt id='1204'> +8.2140562e+01 </wgt>
<wgt id='1205'> +8.2414597e+01 </wgt>
<wgt id='1206'> +7.8670033e+01 </wgt>
<wgt id='1207'> +7.9195145e+01 </wgt>
<wgt id='1208'> +8.2012538e+01 </wgt>
<wgt id='1209'> +7.9698938e+01 </wgt>
<wgt id='1210'> +8.3228976e+01 </wgt>
<wgt id='1211'> +7.8461298e+01 </wgt>
<wgt id='1212'> +7.9771169e+01 </wgt>
<wgt id='1213'> +8.2927586e+01 </wgt>
<wgt id='1214'> +8.0218845e+01 </wgt>
<wgt id='1215'> +7.8779479e+01 </wgt>
<wgt id='1216'> +7.9159921e+01 </wgt>
<wgt id='1217'> +7.9306007e+01 </wgt>
<wgt id='1218'> +7.9077843e+01 </wgt>
<wgt id='1219'> +7.9219764e+01 </wgt>
<wgt id='1220'> +7.9370937e+01 </wgt>
<wgt id='1221'> +7.9372556e+01 </wgt>
<wgt id='1222'> +7.9048559e+01 </wgt>
<wgt id='1223'> +7.9646881e+01 </wgt>
<wgt id='1224'> +7.9624946e+01 </wgt>
<wgt id='1225'> +7.9526707e+01 </wgt>
<wgt id='1226'> +7.9026822e+01 </wgt>
<wgt id='1227'> +7.8925642e+01 </wgt>
<wgt id='1228'> +7.9069327e+01 </wgt>
<wgt id='1229'> +7.9572259e+01 </wgt>
<wgt id='1230'> +7.9062326e+01 </wgt>
<wgt id='1231'> +7.9061203e+01 </wgt>
<wgt id='1232'> +7.9869457e+01 </wgt>
<wgt id='1233'> +7.8872082e+01 </wgt>
<wgt id='1234'> +7.9260121e+01 </wgt>
<wgt id='1235'> +7.9163654e+01 </wgt>
<wgt id='1236'> +7.9064130e+01 </wgt>
<wgt id='1237'> +7.9382290e+01 </wgt>
<wgt id='1238'> +7.9012881e+01 </wgt>
<wgt id='1239'> +7.8693364e+01 </wgt>
<wgt id='1240'> +7.9630289e+01 </wgt>
<wgt id='1241'> +7.9068266e+01 </wgt>
<wgt id='1242'> +7.9329191e+01 </wgt>
<wgt id='1243'> +7.8839952e+01 </wgt>
<wgt id='1244'> +7.9545659e+01 </wgt>
<wgt id='1245'> +7.9513659e+01 </wgt>
<wgt id='1246'> +7.7495839e+01 </wgt>
<wgt id='1247'> +7.9105748e+01 </wgt>
<wgt id='1248'> +7.9444113e+01 </wgt>
<wgt id='1249'> +7.9193189e+01 </wgt>
<wgt id='1250'> +7.9127619e+01 </wgt>
<wgt id='1251'> +7.9577605e+01 </wgt>
<wgt id='1252'> +7.9159435e+01 </wgt>
<wgt id='1253'> +7.8941003e+01 </wgt>
<wgt id='1254'> +7.9187149e+01 </wgt>
<wgt id='1255'> +7.9217395e+01 </wgt>
<wgt id='1256'> +7.8961735e+01 </wgt>
<wgt id='1257'> +7.9381441e+01 </wgt>
<wgt id='1258'> +7.8954956e+01 </wgt>
<wgt id='1259'> +7.9208063e+01 </wgt>
<wgt id='1260'> +7.9232422e+01 </wgt>
<wgt id='1261'> +7.9342272e+01 </wgt>
<wgt id='1262'> +7.9159438e+01 </wgt>
<wgt id='1263'> +7.9175978e+01 </wgt>
<wgt id='1264'> +7.9367332e+01 </wgt>
<wgt id='1265'> +7.8783530e+01 </wgt>
<wgt id='1266'> +7.9140120e+01 </wgt>
<wgt id='1267'> +7.9624868e+01 </wgt>
<wgt id='1268'> +7.9088994e+01 </wgt>
<wgt id='1269'> +7.9391098e+01 </wgt>
<wgt id='1270'> +7.9397064e+01 </wgt>
<wgt id='1271'> +7.8997909e+01 </wgt>
<wgt id='1272'> +7.9267047e+01 </wgt>
<wgt id='1273'> +7.9074677e+01 </wgt>
<wgt id='1274'> +7.9187404e+01 </wgt>
<wgt id='1275'> +7.9025120e+01 </wgt>
<wgt id='1276'> +7.9430948e+01 </wgt>
<wgt id='1277'> +7.9216121e+01 </wgt>
<wgt id='1278'> +7.9351596e+01 </wgt>
<wgt id='1279'> +7.9087003e+01 </wgt>
<wgt id='1280'> +7.9350185e+01 </wgt>
<wgt id='1281'> +7.8966877e+01 </wgt>
<wgt id='1282'> +7.9018292e+01 </wgt>
<wgt id='1283'> +7.9248739e+01 </wgt>
<wgt id='1284'> +7.9026144e+01 </wgt>
<wgt id='1285'> +7.9089159e+01 </wgt>
<wgt id='1286'> +7.9233508e+01 </wgt>
<wgt id='1287'> +7.9258340e+01 </wgt>
<wgt id='1288'> +7.9247349e+01 </wgt>
<wgt id='1289'> +7.9245597e+01 </wgt>
<wgt id='1290'> +7.9065372e+01 </wgt>
<wgt id='1291'> +7.9052822e+01 </wgt>
<wgt id='1292'> +7.9000340e+01 </wgt>
<wgt id='1293'> +7.9245286e+01 </wgt>
<wgt id='1294'> +7.9055783e+01 </wgt>
<wgt id='1295'> +7.9124982e+01 </wgt>
<wgt id='1296'> +7.9139670e+01 </wgt>
<wgt id='1297'> +7.9095902e+01 </wgt>
<wgt id='1298'> +7.9303271e+01 </wgt>
<wgt id='1299'> +7.9221831e+01 </wgt>
<wgt id='1300'> +7.9198693e+01 </wgt>
<wgt id='1301'> +7.9202479e+01 </wgt>
<wgt id='1302'> +7.9152444e+01 </wgt>
<wgt id='1303'> +7.9116332e+01 </wgt>
<wgt id='1304'> +7.9235610e+01 </wgt>
<wgt id='1305'> +7.9253671e+01 </wgt>
<wgt id='1306'> +7.9143451e+01 </wgt>
<wgt id='1307'> +7.9178088e+01 </wgt>
<wgt id='1308'> +7.9175747e+01 </wgt>
<wgt id='1309'> +7.9190502e+01 </wgt>
<wgt id='1310'> +7.9143901e+01 </wgt>
<wgt id='1311'> +7.9275942e+01 </wgt>
<wgt id='1312'> +7.9162481e+01 </wgt>
<wgt id='1313'> +7.9207114e+01 </wgt>
<wgt id='1314'> +7.9111894e+01 </wgt>
<wgt id='1315'> +7.9241115e+01 </wgt>
<wgt id='1316'> +7.9162050e+01 </wgt>
<wgt id='1317'> +7.5939171e+01 </wgt>
<wgt id='1318'> +8.2449121e+01 </wgt>
<wgt id='1319'> +8.3064225e+01 </wgt>
<wgt id='1320'> +7.4297663e+01 </wgt>
<wgt id='1321'> +7.4861442e+01 </wgt>
<wgt id='1322'> +7.2096631e+01 </wgt>
<wgt id='1323'> +7.5198962e+01 </wgt>
<wgt id='1324'> +7.4737300e+01 </wgt>
<wgt id='1325'> +7.5651541e+01 </wgt>
<wgt id='1326'> +7.3643220e+01 </wgt>
<wgt id='1327'> +7.5911557e+01 </wgt>
<wgt id='1328'> +7.3803549e+01 </wgt>
<wgt id='1329'> +7.5094652e+01 </wgt>
<wgt id='1330'> +7.2915727e+01 </wgt>
<wgt id='1331'> +7.2122854e+01 </wgt>
<wgt id='1332'> +7.5931011e+01 </wgt>
<wgt id='1333'> +7.1538418e+01 </wgt>
<wgt id='1334'> +7.6433282e+01 </wgt>
<wgt id='1335'> +7.4605667e+01 </wgt>
<wgt id='1336'> +7.3252035e+01 </wgt>
<wgt id='1337'> +7.6462686e+01 </wgt>
<wgt id='1338'> +7.1848988e+01 </wgt>
<wgt id='1339'> +7.5012691e+01 </wgt>
<wgt id='1340'> +7.3537438e+01 </wgt>
<wgt id='1341'> +7.4659382e+01 </wgt>
<wgt id='1342'> +7.3729567e+01 </wgt>
<wgt id='1343'> +7.4900756e+01 </wgt>
<wgt id='1344'> +7.3722483e+01 </wgt>
<wgt id='1345'> +7.4921827e+01 </wgt>
<wgt id='1346'> +7.3879155e+01 </wgt>
<wgt id='1347'> +7.3662017e+01 </wgt>
<wgt id='1348'> +7.5163364e+01 </wgt>
<wgt id='1349'> +7.3993171e+01 </wgt>
<wgt id='1350'> +7.4388761e+01 </wgt>
<wgt id='1351'> +7.3839076e+01 </wgt>
<wgt id='1352'> +7.4884878e+01 </wgt>
<wgt id='1353'> +7.3601245e+01 </wgt>
<wgt id='1354'> +7.5813158e+01 </wgt>
<wgt id='1355'> +7.6349084e+01 </wgt>
<wgt id='1356'> +7.2337844e+01 </wgt>
<wgt id='1357'> +7.4078083e+01 </wgt>
<wgt id='1358'> +7.4252226e+01 </wgt>
<wgt id='1359'> +7.3394671e+01 </wgt>
<wgt id='1360'> +7.4587063e+01 </wgt>
<wgt id='1361'> +7.3392941e+01 </wgt>
<wgt id='1362'> +7.5319569e+01 </wgt>
<wgt id='1363'> +7.4132719e+01 </wgt>
<wgt id='1364'> +7.4347596e+01 </wgt>
<wgt id='1365'> +7.4360892e+01 </wgt>
<wgt id='1366'> +7.4476865e+01 </wgt>
<wgt id='1367'> +7.3228425e+01 </wgt>
<wgt id='1368'> +7.6328722e+01 </wgt>
<wgt id='1369'> +7.4086196e+01 </wgt>
<wgt id='1370'> +7.5864756e+01 </wgt>
<wgt id='1371'> +7.4300299e+01 </wgt>
<wgt id='1372'> +7.3177357e+01 </wgt>
<wgt id='1373'> +7.3098561e+01 </wgt>
<wgt id='1374'> +7.3754720e+01 </wgt>
<wgt id='1375'> +7.4237471e+01 </wgt>
<wgt id='1376'> +7.4650499e+01 </wgt>
<wgt id='1377'> +7.1178634e+01 </wgt>
<wgt id='1378'> +7.7329175e+01 </wgt>
<wgt id='1379'> +7.5832377e+01 </wgt>
<wgt id='1380'> +7.2637197e+01 </wgt>
<wgt id='1381'> +7.9050582e+01 </wgt>
<wgt id='1382'> +6.6643801e+01 </wgt>
<wgt id='1383'> +7.5247205e+01 </wgt>
<wgt id='1384'> +8.0658260e+01 </wgt>
<wgt id='1385'> +9.4289531e+01 </wgt>
<wgt id='1386'> +9.4261916e+01 </wgt>
<wgt id='1387'> +9.4319373e+01 </wgt>
<wgt id='1388'> +9.3905839e+01 </wgt>
<wgt id='1389'> +9.4939289e+01 </wgt>
<wgt id='1390'> +9.4539012e+01 </wgt>
<wgt id='1391'> +9.3987346e+01 </wgt>
<wgt id='1392'> +9.4050582e+01 </wgt>
<wgt id='1393'> +9.4457035e+01 </wgt>
<wgt id='1394'> +9.3674315e+01 </wgt>
<wgt id='1395'> +9.5050861e+01 </wgt>
<wgt id='1396'> +9.5609629e+01 </wgt>
<wgt id='1397'> +9.3597942e+01 </wgt>
<wgt id='1398'> +9.3537712e+01 </wgt>
<wgt id='1399'> +9.4837532e+01 </wgt>
<wgt id='1400'> +9.4994053e+01 </wgt>
<wgt id='1401'> +9.3745764e+01 </wgt>
<wgt id='1402'> +9.4209912e+01 </wgt>
<wgt id='1403'> +9.4319796e+01 </wgt>
<wgt id='1404'> +9.2718693e+01 </wgt>
<wgt id='1405'> +9.5092089e+01 </wgt>
<wgt id='1406'> +9.4115874e+01 </wgt>
<wgt id='1407'> +9.4579546e+01 </wgt>
<wgt id='1408'> +9.3732343e+01 </wgt>
<wgt id='1409'> +9.5408285e+01 </wgt>
<wgt id='1410'> +9.4283416e+01 </wgt>
<wgt id='1411'> +9.4352864e+01 </wgt>
<wgt id='1412'> +9.4994882e+01 </wgt>
<wgt id='1413'> +9.3218785e+01 </wgt>
<wgt id='1414'> +9.3576433e+01 </wgt>
<wgt id='1415'> +9.4852701e+01 </wgt>
<wgt id='1416'> +9.3434501e+01 </wgt>
<wgt id='1417'> +9.4743349e+01 </wgt>
<wgt id='1418'> +9.3859498e+01 </wgt>
<wgt id='1419'> +9.5088958e+01 </wgt>
<wgt id='1420'> +9.4912275e+01 </wgt>
<wgt id='1421'> +9.5042306e+01 </wgt>
<wgt id='1422'> +9.5139219e+01 </wgt>
<wgt id='1423'> +9.3325328e+01 </wgt>
<wgt id='1424'> +9.4838936e+01 </wgt>
<wgt id='1425'> +9.3615528e+01 </wgt>
<wgt id='1426'> +9.5121311e+01 </wgt>
<wgt id='1427'> +9.4338046e+01 </wgt>
<wgt id='1428'> +9.4297599e+01 </wgt>
<wgt id='1429'> +9.3879664e+01 </wgt>
<wgt id='1430'> +9.5068154e+01 </wgt>
<wgt id='1431'> +9.4618416e+01 </wgt>
<wgt id='1432'> +9.4671556e+01 </wgt>
<wgt id='1433'> +9.5163130e+01 </wgt>
<wgt id='1434'> +9.4600672e+01 </wgt>
<wgt id='1435'> +9.3610589e+01 </wgt>
<wgt id='1436'> +5.7901271e+01 </wgt>
<wgt id='1437'> +5.7893707e+01 </wgt>
<wgt id='1438'> +5.7961832e+01 </wgt>
<wgt id='1439'> +5.7904214e+01 </wgt>
<wgt id='1440'> +5.7750150e+01 </wgt>
<wgt id='1441'> +5.8240921e+01 </wgt>
<wgt id='1442'> +5.7685261e+01 </wgt>
<wgt id='1443'> +5.7797417e+01 </wgt>
<wgt id='1444'> +5.8043814e+01 </wgt>
<wgt id='1445'> +5.6918959e+01 </wgt>
<wgt id='1446'> +5.8541408e+01 </wgt>
<wgt id='1447'> +5.7718600e+01 </wgt>
<wgt id='1448'> +5.7886272e+01 </wgt>
<wgt id='1449'> +5.8049631e+01 </wgt>
<wgt id='1450'> +5.7945217e+01 </wgt>
<wgt id='1451'> +5.8198284e+01 </wgt>
<wgt id='1452'> +5.7757100e+01 </wgt>
<wgt id='1453'> +5.8038280e+01 </wgt>
<wgt id='1454'> +5.8039624e+01 </wgt>
<wgt id='1455'> +5.8074107e+01 </wgt>
<wgt id='1456'> +5.7853010e+01 </wgt>
<wgt id='1457'> +5.8329972e+01 </wgt>
<wgt id='1458'> +5.8337886e+01 </wgt>
<wgt id='1459'> +5.7639584e+01 </wgt>
<wgt id='1460'> +5.7855569e+01 </wgt>
<wgt id='1461'> +5.7750459e+01 </wgt>
<wgt id='1462'> +5.6891021e+01 </wgt>
<wgt id='1463'> +5.8851999e+01 </wgt>
<wgt id='1464'> +5.7460826e+01 </wgt>
<wgt id='1465'> +7.4240025e+01 </wgt>
<wgt id='1466'> +7.5105290e+01 </wgt>
<wgt id='1467'> +7.5161678e+01 </wgt>
<wgt id='1468'> +7.5017580e+01 </wgt>
<wgt id='1469'> +7.5475812e+01 </wgt>
<wgt id='1470'> +7.4944050e+01 </wgt>
<wgt id='1471'> +7.5023869e+01 </wgt>
<wgt id='1472'> +7.4724128e+01 </wgt>
<wgt id='1473'> +7.5017798e+01 </wgt>
<wgt id='1474'> +7.5419872e+01 </wgt>
<wgt id='1475'> +7.5632750e+01 </wgt>
<wgt id='1476'> +7.5906535e+01 </wgt>
<wgt id='1477'> +7.4282123e+01 </wgt>
<wgt id='1478'> +7.4785768e+01 </wgt>
<wgt id='1479'> +7.3952612e+01 </wgt>
<wgt id='1480'> +7.4894927e+01 </wgt>
<wgt id='1481'> +7.4752447e+01 </wgt>
<wgt id='1482'> +7.4558968e+01 </wgt>
<wgt id='1483'> +7.5047411e+01 </wgt>
<wgt id='1484'> +7.6235610e+01 </wgt>
<wgt id='1485'> +7.4774901e+01 </wgt>
<wgt id='1486'> +7.5845475e+01 </wgt>
<wgt id='1487'> +7.5683062e+01 </wgt>
<wgt id='1488'> +7.5347123e+01 </wgt>
<wgt id='1489'> +7.5926075e+01 </wgt>
<wgt id='1490'> +7.4602643e+01 </wgt>
<wgt id='1491'> +7.5318748e+01 </wgt>
<wgt id='1492'> +7.5091556e+01 </wgt>
<wgt id='1493'> +7.5205843e+01 </wgt>
<wgt id='1494'> +7.4990373e+01 </wgt>
<wgt id='1495'> +7.4930254e+01 </wgt>
<wgt id='1496'> +7.5006819e+01 </wgt>
<wgt id='1497'> +7.4761227e+01 </wgt>
<wgt id='1498'> +7.5648322e+01 </wgt>
<wgt id='1499'> +7.5187483e+01 </wgt>
<wgt id='1500'> +7.4633238e+01 </wgt>
<wgt id='1501'> +7.5657773e+01 </wgt>
<wgt id='1502'> +7.5019286e+01 </wgt>
<wgt id='1503'> +7.5260021e+01 </wgt>
<wgt id='1504'> +7.4767890e+01 </wgt>
<wgt id='1505'> +7.4826589e+01 </wgt>
<wgt id='1506'> +7.4720065e+01 </wgt>
<wgt id='1507'> +7.5293948e+01 </wgt>
<wgt id='1508'> +7.4953929e+01 </wgt>
<wgt id='1509'> +7.5052215e+01 </wgt>
<wgt id='1510'> +7.5121629e+01 </wgt>
<wgt id='1511'> +7.4948152e+01 </wgt>
<wgt id='1512'> +7.5390639e+01 </wgt>
<wgt id='1513'> +7.4891794e+01 </wgt>
<wgt id='1514'> +7.5200849e+01 </wgt>
<wgt id='1515'> +7.4981232e+01 </wgt>
<wgt id='1516'> +7.4892610e+01 </wgt>
<wgt id='1517'> +7.4930555e+01 </wgt>
<wgt id='1518'> +7.5044192e+01 </wgt>
<wgt id='1519'> +7.5048517e+01 </wgt>
<wgt id='1520'> +7.5288928e+01 </wgt>
<wgt id='1521'> +7.5178580e+01 </wgt>
<wgt id='1522'> +7.5053707e+01 </wgt>
<wgt id='1523'> +7.5148541e+01 </wgt>
<wgt id='1524'> +7.5402249e+01 </wgt>
<wgt id='1525'> +7.5222450e+01 </wgt>
<wgt id='1526'> +7.5024392e+01 </wgt>
<wgt id='1527'> +7.5187517e+01 </wgt>
<wgt id='1528'> +7.5074138e+01 </wgt>
<wgt id='1529'> +7.5123311e+01 </wgt>
<wgt id='1530'> +7.5163719e+01 </wgt>
<wgt id='1531'> +7.5045716e+01 </wgt>
<wgt id='1532'> +7.5201231e+01 </wgt>
<wgt id='1533'> +7.5053398e+01 </wgt>
<wgt id='1534'> +7.5167906e+01 </wgt>
<wgt id='1535'> +7.5073839e+01 </wgt>
<wgt id='1536'> +7.5055645e+01 </wgt>
<wgt id='1537'> +7.5100624e+01 </wgt>
<wgt id='1538'> +7.5079901e+01 </wgt>
<wgt id='1539'> +7.5205818e+01 </wgt>
<wgt id='1540'> +7.5106391e+01 </wgt>
<wgt id='1541'> +7.5072521e+01 </wgt>
<wgt id='1542'> +7.5095432e+01 </wgt>
<wgt id='1543'> +7.5092218e+01 </wgt>
<wgt id='1544'> +7.5074696e+01 </wgt>
<wgt id='1545'> +7.5141455e+01 </wgt>
<wgt id='1546'> +7.5092944e+01 </wgt>
<wgt id='1547'> +7.5172279e+01 </wgt>
<wgt id='1548'> +7.5098537e+01 </wgt>
<wgt id='1549'> +7.5143436e+01 </wgt>
<wgt id='1550'> +7.5158738e+01 </wgt>
<wgt id='1551'> +7.5180852e+01 </wgt>
<wgt id='1552'> +7.5163076e+01 </wgt>
<wgt id='1553'> +7.5157587e+01 </wgt>
<wgt id='1554'> +7.5089248e+01 </wgt>
<wgt id='1555'> +7.5062438e+01 </wgt>
<wgt id='1556'> +7.5110116e+01 </wgt>
<wgt id='1557'> +7.5115888e+01 </wgt>
<wgt id='1558'> +7.5149923e+01 </wgt>
<wgt id='1559'> +7.5125083e+01 </wgt>
<wgt id='1560'> +7.5123453e+01 </wgt>
<wgt id='1561'> +7.5122084e+01 </wgt>
<wgt id='1562'> +7.5101388e+01 </wgt>
<wgt id='1563'> +7.5103619e+01 </wgt>
<wgt id='1564'> +7.5117882e+01 </wgt>
<wgt id='1565'> +7.5126366e+01 </wgt>
<wgt id='1566'> +7.5116744e+01 </wgt>
<wgt id='1567'> +7.2655179e+01 </wgt>
<wgt id='1568'> +7.7398040e+01 </wgt>
<wgt id='1569'> +7.8504606e+01 </wgt>
<wgt id='1570'> +7.8815257e+01 </wgt>
<wgt id='1571'> +7.8836879e+01 </wgt>
<wgt id='1572'> +7.7946715e+01 </wgt>
<wgt id='1573'> +7.8619614e+01 </wgt>
<wgt id='1574'> +7.8922033e+01 </wgt>
<wgt id='1575'> +7.8485948e+01 </wgt>
<wgt id='1576'> +7.8659347e+01 </wgt>
<wgt id='1577'> +7.8451533e+01 </wgt>
<wgt id='1578'> +7.7954053e+01 </wgt>
<wgt id='1579'> +7.8221985e+01 </wgt>
<wgt id='1580'> +7.9241989e+01 </wgt>
<wgt id='1581'> +7.8677332e+01 </wgt>
<wgt id='1582'> +7.8246233e+01 </wgt>
<wgt id='1583'> +7.8327527e+01 </wgt>
<wgt id='1584'> +8.0935614e+01 </wgt>
<wgt id='1585'> +7.7985225e+01 </wgt>
<wgt id='1586'> +7.8669815e+01 </wgt>
<wgt id='1587'> +7.8602873e+01 </wgt>
<wgt id='1588'> +7.7708090e+01 </wgt>
<wgt id='1589'> +7.8294165e+01 </wgt>
<wgt id='1590'> +7.9004571e+01 </wgt>
<wgt id='1591'> +7.7298045e+01 </wgt>
<wgt id='1592'> +7.8924869e+01 </wgt>
<wgt id='1593'> +7.8582665e+01 </wgt>
<wgt id='1594'> +7.8469790e+01 </wgt>
<wgt id='1595'> +7.8426136e+01 </wgt>
<wgt id='1596'> +7.8400046e+01 </wgt>
<wgt id='1597'> +7.8357186e+01 </wgt>
<wgt id='1598'> +7.8052020e+01 </wgt>
<wgt id='1599'> +7.8490026e+01 </wgt>
<wgt id='1600'> +7.8092960e+01 </wgt>
<wgt id='1601'> +7.8804418e+01 </wgt>
<wgt id='1602'> +7.8451321e+01 </wgt>
<wgt id='1603'> +7.8351376e+01 </wgt>
<wgt id='1604'> +7.8629183e+01 </wgt>
<wgt id='1605'> +7.8586513e+01 </wgt>
<wgt id='1606'> +7.9002296e+01 </wgt>
<wgt id='1607'> +7.9241509e+01 </wgt>
<wgt id='1608'> +7.8609484e+01 </wgt>
<wgt id='1609'> +7.8700121e+01 </wgt>
<wgt id='1610'> +7.8308370e+01 </wgt>
<wgt id='1611'> +7.8361356e+01 </wgt>
<wgt id='1612'> +7.8446539e+01 </wgt>
<wgt id='1613'> +7.8169507e+01 </wgt>
<wgt id='1614'> +7.8663894e+01 </wgt>
<wgt id='1615'> +7.8046969e+01 </wgt>
<wgt id='1616'> +7.8875124e+01 </wgt>
<wgt id='1617'> +7.8588046e+01 </wgt>
<wgt id='1618'> +7.8373878e+01 </wgt>
<wgt id='1619'> +7.8422972e+01 </wgt>
<wgt id='1620'> +7.8439229e+01 </wgt>
<wgt id='1621'> +7.8404741e+01 </wgt>
<wgt id='1622'> +7.8682833e+01 </wgt>
<wgt id='1623'> +7.8457213e+01 </wgt>
<wgt id='1624'> +7.8362286e+01 </wgt>
<wgt id='1625'> +7.8539441e+01 </wgt>
<wgt id='1626'> +7.8736146e+01 </wgt>
<wgt id='1627'> +7.8443869e+01 </wgt>
<wgt id='1628'> +7.8220681e+01 </wgt>
<wgt id='1629'> +7.8463943e+01 </wgt>
<wgt id='1630'> +7.8516628e+01 </wgt>
<wgt id='1631'> +7.8517844e+01 </wgt>
<wgt id='1632'> +7.8605098e+01 </wgt>
<wgt id='1633'> +7.8567943e+01 </wgt>
<wgt id='1634'> +7.8518937e+01 </wgt>
<wgt id='1635'> +7.8560450e+01 </wgt>
<wgt id='1636'> +7.8526703e+01 </wgt>
<wgt id='1637'> +7.8484983e+01 </wgt>
<wgt id='1638'> +7.8507006e+01 </wgt>
<wgt id='1639'> +7.8540345e+01 </wgt>
<wgt id='1640'> +7.8613709e+01 </wgt>
<wgt id='1641'> +7.8543193e+01 </wgt>
<wgt id='1642'> +7.8539676e+01 </wgt>
<wgt id='1643'> +7.8564003e+01 </wgt>
<wgt id='1644'> +7.8516737e+01 </wgt>
<wgt id='1645'> +7.8492552e+01 </wgt>
<wgt id='1646'> +7.8480906e+01 </wgt>
<wgt id='1647'> +7.8503886e+01 </wgt>
<wgt id='1648'> +7.8573971e+01 </wgt>
<wgt id='1649'> +7.8547262e+01 </wgt>
<wgt id='1650'> +7.8561364e+01 </wgt>
<wgt id='1651'> +7.8531800e+01 </wgt>
<wgt id='1652'> +7.8522256e+01 </wgt>
<wgt id='1653'> +7.8529167e+01 </wgt>
<wgt id='1654'> +7.8442042e+01 </wgt>
<wgt id='1655'> +7.8501537e+01 </wgt>
<wgt id='1656'> +7.8473057e+01 </wgt>
<wgt id='1657'> +7.8447660e+01 </wgt>
<wgt id='1658'> +7.8521012e+01 </wgt>
<wgt id='1659'> +7.8507005e+01 </wgt>
<wgt id='1660'> +7.8475385e+01 </wgt>
<wgt id='1661'> +7.8526438e+01 </wgt>
<wgt id='1662'> +7.8483709e+01 </wgt>
<wgt id='1663'> +7.8482080e+01 </wgt>
<wgt id='1664'> +7.8518995e+01 </wgt>
<wgt id='1665'> +7.8462590e+01 </wgt>
<wgt id='1666'> +7.8498308e+01 </wgt>
<wgt id='1667'> +7.8516040e+01 </wgt>
<wgt id='1668'> +7.8484012e+01 </wgt>
<wgt id='1669'> +7.8503442e+01 </wgt>
<wgt id='1670'> +7.5733888e+01 </wgt>
<wgt id='1671'> +8.0876317e+01 </wgt>
<wgt id='1672'> +7.5108909e+01 </wgt>
<wgt id='1673'> +7.5443387e+01 </wgt>
<wgt id='1674'> +7.4309818e+01 </wgt>
<wgt id='1675'> +7.5125330e+01 </wgt>
<wgt id='1676'> +7.5039686e+01 </wgt>
<wgt id='1677'> +7.5499372e+01 </wgt>
<wgt id='1678'> +7.7316972e+01 </wgt>
<wgt id='1679'> +7.5134302e+01 </wgt>
<wgt id='1680'> +7.5282653e+01 </wgt>
<wgt id='1681'> +7.5506383e+01 </wgt>
<wgt id='1682'> +7.5283999e+01 </wgt>
<wgt id='1683'> +7.4715991e+01 </wgt>
<wgt id='1684'> +7.5219768e+01 </wgt>
<wgt id='1685'> +7.5129807e+01 </wgt>
<wgt id='1686'> +7.3591251e+01 </wgt>
<wgt id='1687'> +7.5262246e+01 </wgt>
<wgt id='1688'> +7.5156586e+01 </wgt>
<wgt id='1689'> +7.4804367e+01 </wgt>
<wgt id='1690'> +7.5074215e+01 </wgt>
<wgt id='1691'> +7.5259509e+01 </wgt>
<wgt id='1692'> +7.5276554e+01 </wgt>
<wgt id='1693'> +7.5090044e+01 </wgt>
<wgt id='1694'> +7.5022292e+01 </wgt>
<wgt id='1695'> +7.5137253e+01 </wgt>
<wgt id='1696'> +7.4929949e+01 </wgt>
<wgt id='1697'> +7.5165608e+01 </wgt>
<wgt id='1698'> +7.4637570e+01 </wgt>
<wgt id='1699'> +7.5178923e+01 </wgt>
<wgt id='1700'> +7.5136448e+01 </wgt>
<wgt id='1701'> +7.5209532e+01 </wgt>
<wgt id='1702'> +7.5138454e+01 </wgt>
<wgt id='1703'> +7.2655179e+01 </wgt>
<wgt id='1704'> +7.7398040e+01 </wgt>
<wgt id='1705'> +7.8498678e+01 </wgt>
<wgt id='1706'> +7.9172790e+01 </wgt>
<wgt id='1707'> +8.1186614e+01 </wgt>
<wgt id='1708'> +7.8374363e+01 </wgt>
<wgt id='1709'> +7.8913773e+01 </wgt>
<wgt id='1710'> +7.8010118e+01 </wgt>
<wgt id='1711'> +7.8491549e+01 </wgt>
<wgt id='1712'> +7.8261637e+01 </wgt>
<wgt id='1713'> +7.8771506e+01 </wgt>
<wgt id='1714'> +7.7677774e+01 </wgt>
<wgt id='1715'> +7.8573600e+01 </wgt>
<wgt id='1716'> +7.8869467e+01 </wgt>
<wgt id='1717'> +7.8617097e+01 </wgt>
<wgt id='1718'> +7.8712702e+01 </wgt>
<wgt id='1719'> +7.8588956e+01 </wgt>
<wgt id='1720'> +7.8595078e+01 </wgt>
<wgt id='1721'> +7.8505516e+01 </wgt>
<wgt id='1722'> +7.7922577e+01 </wgt>
<wgt id='1723'> +7.8486438e+01 </wgt>
<wgt id='1724'> +7.8785256e+01 </wgt>
<wgt id='1725'> +7.8281652e+01 </wgt>
<wgt id='1726'> +7.7371834e+01 </wgt>
<wgt id='1727'> +7.8642683e+01 </wgt>
<wgt id='1728'> +7.8446069e+01 </wgt>
<wgt id='1729'> +7.8610336e+01 </wgt>
<wgt id='1730'> +7.8450450e+01 </wgt>
<wgt id='1731'> +7.8274124e+01 </wgt>
<wgt id='1732'> +7.8706509e+01 </wgt>
<wgt id='1733'> +7.8189664e+01 </wgt>
<wgt id='1734'> +7.8788344e+01 </wgt>
<wgt id='1735'> +7.8489226e+01 </wgt>
<wgt id='1736'> +7.5733888e+01 </wgt>
<wgt id='1737'> +8.0876317e+01 </wgt>
<wgt id='1738'> +7.9317466e+01 </wgt>
<wgt id='1739'> +7.9435579e+01 </wgt>
<wgt id='1740'> +7.9200148e+01 </wgt>
<wgt id='1741'> +7.9292125e+01 </wgt>
<wgt id='1742'> +7.9342734e+01 </wgt>
<wgt id='1743'> +7.9354155e+01 </wgt>
<wgt id='1744'> +7.9280711e+01 </wgt>
<wgt id='1745'> +7.9072309e+01 </wgt>
<wgt id='1746'> +7.9555638e+01 </wgt>
<wgt id='1747'> +7.7958256e+01 </wgt>
<wgt id='1748'> +8.0651958e+01 </wgt>
<wgt id='1749'> +8.0143326e+01 </wgt>
<wgt id='1750'> +7.8469337e+01 </wgt>
<wgt id='1751'> +7.9464283e+01 </wgt>
<wgt id='1752'> +7.9168002e+01 </wgt>
<wgt id='1753'> +7.9463490e+01 </wgt>
<wgt id='1754'> +7.9191401e+01 </wgt>
<wgt id='1755'> +7.9051857e+01 </wgt>
<wgt id='1756'> +7.9479301e+01 </wgt>
<wgt id='1757'> +7.7852738e+01 </wgt>
<wgt id='1758'> +8.0732374e+01 </wgt>
<wgt id='1759'> +7.7837273e+01 </wgt>
<wgt id='1760'> +8.0717408e+01 </wgt>
<wgt id='1761'> +7.7469113e+01 </wgt>
<wgt id='1762'> +8.1124220e+01 </wgt>
<wgt id='1763'> +8.0741355e+01 </wgt>
<wgt id='1764'> +7.7944245e+01 </wgt>
<wgt id='1765'> +7.8738643e+01 </wgt>
<wgt id='1766'> +7.9946574e+01 </wgt>
<wgt id='1767'> +7.9317466e+01 </wgt>
<wgt id='1768'> +8.1791757e+01 </wgt>
<wgt id='1769'> +7.6831743e+01 </wgt>
<wgt id='1770'> +8.6820158e+01 </wgt>
<wgt id='1771'> +8.3870237e+01 </wgt>
<wgt id='1772'> +8.0350660e+01 </wgt>
<wgt id='1773'> +7.8948997e+01 </wgt>
<wgt id='1774'> +7.9246652e+01 </wgt>
<wgt id='1775'> +7.9390403e+01 </wgt>
<wgt id='1776'> +7.8860182e+01 </wgt>
<wgt id='1777'> +7.9774510e+01 </wgt>
<wgt id='1778'> +7.8932012e+01 </wgt>
<wgt id='1779'> +8.0025929e+01 </wgt>
<wgt id='1780'> +8.3014630e+01 </wgt>
<wgt id='1781'> +8.7859275e+01 </wgt>
<wgt id='1782'> +8.7997730e+01 </wgt>
<wgt id='1783'> +8.7735687e+01 </wgt>
<wgt id='1784'> +8.7826664e+01 </wgt>
<wgt id='1785'> +8.7906139e+01 </wgt>
<wgt id='1786'> +8.7889747e+01 </wgt>
<wgt id='1787'> +8.7843058e+01 </wgt>
<wgt id='1788'> +8.7625428e+01 </wgt>
<wgt id='1789'> +8.8095286e+01 </wgt>
<wgt id='1790'> +8.7753099e+01 </wgt>
<wgt id='1791'> +8.7972593e+01 </wgt>
<wgt id='1792'> +8.6219703e+01 </wgt>
<wgt id='1793'> +8.9490791e+01 </wgt>
<wgt id='1794'> +8.8166132e+01 </wgt>
<wgt id='1795'> +8.7567819e+01 </wgt>
<wgt id='1796'> +8.7776179e+01 </wgt>
<wgt id='1797'> +8.8037380e+01 </wgt>
<wgt id='1798'> +8.7676290e+01 </wgt>
<wgt id='1799'> +8.8033358e+01 </wgt>
<wgt id='1800'> +8.6129908e+01 </wgt>
<wgt id='1801'> +8.9517599e+01 </wgt>
<wgt id='1802'> +8.7925325e+01 </wgt>
<wgt id='1803'> +8.7729412e+01 </wgt>
<wgt id='1804'> +8.9003013e+01 </wgt>
<wgt id='1805'> +8.6797340e+01 </wgt>
<wgt id='1806'> +8.7575265e+01 </wgt>
<wgt id='1807'> +8.8368628e+01 </wgt>
<wgt id='1808'> +8.6958004e+01 </wgt>
<wgt id='1809'> +8.8948471e+01 </wgt>
<wgt id='1810'> +8.7803077e+01 </wgt>
<wgt id='1811'> +9.0036769e+01 </wgt>
<wgt id='1812'> +8.5086565e+01 </wgt>
<wgt id='1813'> +9.2971308e+01 </wgt>
<wgt id='1814'> +8.9146768e+01 </wgt>
<wgt id='1815'> +9.1638537e+01 </wgt>
<wgt id='1816'> +8.4612783e+01 </wgt>
<wgt id='1817'> +8.7738517e+01 </wgt>
<wgt id='1818'> +8.8158084e+01 </wgt>
<wgt id='1819'> +8.4711458e+01 </wgt>
<wgt id='1820'> +9.0715719e+01 </wgt>
<wgt id='1821'> +8.4434068e+01 </wgt>
<wgt id='1822'> +8.9653551e+01 </wgt>
<wgt id='1823'> +8.4104810e+01 </wgt>
<wgt id='1824'> +7.3718274e+01 </wgt>
<wgt id='1825'> +7.3696329e+01 </wgt>
<wgt id='1826'> +7.3674599e+01 </wgt>
<wgt id='1827'> +7.3652665e+01 </wgt>
<wgt id='1828'> +7.3630977e+01 </wgt>
<wgt id='1829'> +7.3609040e+01 </wgt>
<wgt id='1830'> +7.3587333e+01 </wgt>
<wgt id='1831'> +7.3565510e+01 </wgt>
<wgt id='1832'> +7.3543816e+01 </wgt>
<wgt id='1833'> +7.3521868e+01 </wgt>
<wgt id='1834'> +7.3499935e+01 </wgt>
<wgt id='1835'> +7.3477997e+01 </wgt>
<wgt id='1836'> +7.3456307e+01 </wgt>
<wgt id='1837'> +7.3434422e+01 </wgt>
<wgt id='1838'> +7.3412784e+01 </wgt>
<wgt id='1839'> +7.3390870e+01 </wgt>
<wgt id='1840'> +7.3369194e+01 </wgt>
<wgt id='1841'> +7.3347333e+01 </wgt>
<wgt id='1842'> +7.3325650e+01 </wgt>
<wgt id='1843'> +7.3303814e+01 </wgt>
<wgt id='1844'> +7.3282092e+01 </wgt>
<wgt id='1845'> +7.3260259e+01 </wgt>
<wgt id='1846'> +7.3238571e+01 </wgt>
<wgt id='1847'> +7.3216735e+01 </wgt>
<wgt id='1848'> +7.3195015e+01 </wgt>
<wgt id='1849'> +7.3173217e+01 </wgt>
<wgt id='1850'> +7.3151369e+01 </wgt>
<wgt id='1851'> +7.3129464e+01 </wgt>
<wgt id='1852'> +7.3107565e+01 </wgt>
<wgt id='1853'> +7.3085950e+01 </wgt>
<wgt id='1854'> +7.3064110e+01 </wgt>
<wgt id='1855'> +7.8212900e+01 </wgt>
<wgt id='1856'> +7.8502655e+01 </wgt>
<wgt id='1857'> +7.8537864e+01 </wgt>
<wgt id='1858'> +7.7659053e+01 </wgt>
<wgt id='1859'> +7.8323458e+01 </wgt>
<wgt id='1860'> +7.8628753e+01 </wgt>
<wgt id='1861'> +7.8209520e+01 </wgt>
<wgt id='1862'> +7.8381014e+01 </wgt>
<wgt id='1863'> +7.8160749e+01 </wgt>
<wgt id='1864'> +7.7666037e+01 </wgt>
<wgt id='1865'> +7.7927521e+01 </wgt>
<wgt id='1866'> +7.8968513e+01 </wgt>
<wgt id='1867'> +7.8395468e+01 </wgt>
<wgt id='1868'> +7.7964761e+01 </wgt>
<wgt id='1869'> +7.8033676e+01 </wgt>
<wgt id='1870'> +8.0609567e+01 </wgt>
<wgt id='1871'> +7.7715229e+01 </wgt>
<wgt id='1872'> +7.8368976e+01 </wgt>
<wgt id='1873'> +7.8305504e+01 </wgt>
<wgt id='1874'> +7.7431168e+01 </wgt>
<wgt id='1875'> +7.8019286e+01 </wgt>
<wgt id='1876'> +7.8703227e+01 </wgt>
<wgt id='1877'> +7.7006438e+01 </wgt>
<wgt id='1878'> +7.8639071e+01 </wgt>
<wgt id='1879'> +7.8280897e+01 </wgt>
<wgt id='1880'> +7.8162634e+01 </wgt>
<wgt id='1881'> +7.8120319e+01 </wgt>
<wgt id='1882'> +7.8124820e+01 </wgt>
<wgt id='1883'> +7.8072706e+01 </wgt>
<wgt id='1884'> +7.7754100e+01 </wgt>
<wgt id='1885'> +7.8191239e+01 </wgt>
<wgt id='1886'> +7.7819471e+01 </wgt>
<wgt id='1887'> +7.8505265e+01 </wgt>
<wgt id='1888'> +7.8154905e+01 </wgt>
<wgt id='1889'> +7.8059172e+01 </wgt>
<wgt id='1890'> +7.8333945e+01 </wgt>
<wgt id='1891'> +7.8295640e+01 </wgt>
<wgt id='1892'> +7.8708801e+01 </wgt>
<wgt id='1893'> +7.8945018e+01 </wgt>
<wgt id='1894'> +7.8311707e+01 </wgt>
<wgt id='1895'> +7.8408372e+01 </wgt>
<wgt id='1896'> +7.8013282e+01 </wgt>
<wgt id='1897'> +7.8068078e+01 </wgt>
<wgt id='1898'> +7.8164219e+01 </wgt>
<wgt id='1899'> +7.7877483e+01 </wgt>
<wgt id='1900'> +7.8369165e+01 </wgt>
<wgt id='1901'> +7.7761180e+01 </wgt>
<wgt id='1902'> +7.8579731e+01 </wgt>
<wgt id='1903'> +7.8298970e+01 </wgt>
<wgt id='1904'> +7.8080710e+01 </wgt>
<wgt id='1905'> +7.8132449e+01 </wgt>
<wgt id='1906'> +7.8145965e+01 </wgt>
<wgt id='1907'> +7.8112301e+01 </wgt>
<wgt id='1908'> +7.8390859e+01 </wgt>
<wgt id='1909'> +7.8167880e+01 </wgt>
<wgt id='1910'> +7.8073756e+01 </wgt>
<wgt id='1911'> +7.8242191e+01 </wgt>
<wgt id='1912'> +7.8443777e+01 </wgt>
<wgt id='1913'> +7.8157921e+01 </wgt>
<wgt id='1914'> +7.7933438e+01 </wgt>
<wgt id='1915'> +7.8175688e+01 </wgt>
<wgt id='1916'> +7.8225489e+01 </wgt>
<wgt id='1917'> +7.8225190e+01 </wgt>
<wgt id='1918'> +7.8309871e+01 </wgt>
<wgt id='1919'> +7.8278250e+01 </wgt>
<wgt id='1920'> +7.8225675e+01 </wgt>
<wgt id='1921'> +7.8267607e+01 </wgt>
<wgt id='1922'> +7.8232497e+01 </wgt>
<wgt id='1923'> +7.8194274e+01 </wgt>
<wgt id='1924'> +7.8212148e+01 </wgt>
<wgt id='1925'> +7.8247390e+01 </wgt>
<wgt id='1926'> +7.8323550e+01 </wgt>
<wgt id='1927'> +7.8248840e+01 </wgt>
<wgt id='1928'> +7.8246306e+01 </wgt>
<wgt id='1929'> +7.8271396e+01 </wgt>
<wgt id='1930'> +7.8225687e+01 </wgt>
<wgt id='1931'> +7.8204314e+01 </wgt>
<wgt id='1932'> +7.8189509e+01 </wgt>
<wgt id='1933'> +7.8214582e+01 </wgt>
<wgt id='1934'> +7.8282414e+01 </wgt>
<wgt id='1935'> +7.8252369e+01 </wgt>
<wgt id='1936'> +7.8272258e+01 </wgt>
<wgt id='1937'> +7.8240982e+01 </wgt>
<wgt id='1938'> +7.8230686e+01 </wgt>
<wgt id='1939'> +7.8236254e+01 </wgt>
<wgt id='1940'> +7.8151797e+01 </wgt>
<wgt id='1941'> +7.8213651e+01 </wgt>
<wgt id='1942'> +7.8180007e+01 </wgt>
<wgt id='1943'> +7.8154124e+01 </wgt>
<wgt id='1944'> +7.8227566e+01 </wgt>
<wgt id='1945'> +7.8214689e+01 </wgt>
<wgt id='1946'> +7.8181376e+01 </wgt>
<wgt id='1947'> +7.8232235e+01 </wgt>
<wgt id='1948'> +7.8192774e+01 </wgt>
<wgt id='1949'> +7.8187234e+01 </wgt>
<wgt id='1950'> +7.8227273e+01 </wgt>
<wgt id='1951'> +7.8172606e+01 </wgt>
<wgt id='1952'> +7.8206610e+01 </wgt>
<wgt id='1953'> +7.8223616e+01 </wgt>
<wgt id='1954'> +7.8193685e+01 </wgt>
<wgt id='1955'> +7.8212635e+01 </wgt>
<wgt id='1956'> +7.8212723e+01 </wgt>
<wgt id='1957'> +7.8213864e+01 </wgt>
<wgt id='1958'> +7.8213084e+01 </wgt>
<wgt id='1959'> +7.8213118e+01 </wgt>
<wgt id='1960'> +7.8213440e+01 </wgt>
<wgt id='1961'> +7.8212977e+01 </wgt>
<wgt id='1962'> +7.8214050e+01 </wgt>
</rwgt>
</event>
<event npLO=" -1 " npNLO=" 1 ">
 8      1 +1.5146096e+02 5.58246860e+01 7.54677110e-03 1.22297500e-01
        3 -1    0    0  502    0 +0.0000000000e+00 +0.0000000000e+00 +3.5575203000e+02 3.5575203000e+02 0.0000000000e+00 0.0000e+00 9.0000e+00
       21 -1    0    0  503  501 +0.0000000000e+00 +0.0000000000e+00 -1.4914866000e+02 1.4914866000e+02 0.0000000000e+00 0.0000e+00 9.0000e+00
       23  2    1    2    0    0 +2.4292238000e+01 -6.9364412000e+01 +3.3388825000e+02 3.5380972000e+02 9.1095665000e+01 0.0000e+00 0.0000e+00
       15  1    3    3    0    0 +1.9207510000e+00 -1.7182773000e+01 +2.5977397000e+02 2.6035478000e+02 1.7770000000e+00 0.0000e+00 9.0000e+00
      -15  1    3    3    0    0 +6.8502238000e+00 -1.7090337000e+01 +2.2115348000e+01 2.8831433000e+01 1.7770000000e+00 0.0000e+00 9.0000e+00
       22  1    3    3    0    0 +1.5521263000e+01 -3.5091302000e+01 +5.1998933000e+01 6.4623510000e+01 0.0000000000e+00 0.0000e+00 9.0000e+00
        3  1    1    2  503    0 -3.5241875000e+00 +1.1246197000e+01 -5.4042536000e+01 5.5312679000e+01 0.0000000000e+00 0.0000e+00 9.0000e+00
       21  1    1    2  502  501 -2.0768050000e+01 +5.8118215000e+01 -7.3242348000e+01 9.5778288000e+01 0.0000000000e+00 0.0000e+00 9.0000e+00
#aMCatNLO 2  0  0  2  6 0.10275398E+02 0.00000000E+00 -9  7  0 0.00000000E+00 0.00000000E+00 0.00000000E+00 0.00000000E+00 0.00000000E+00
<rwgt>
<wgt id='1001'> +1.5146000e+02 </wgt>
<wgt id='1002'> +1.5146000e+02 </wgt>
<wgt id='1003'> +1.4740000e+02 </wgt>
<wgt id='1004'> +1.5154000e+02 </wgt>
<wgt id='1005'> +1.5731000e+02 </wgt>
<wgt id='1006'> +1.4863000e+02 </wgt>
<wgt id='1007'> +1.3274000e+02 </wgt>
<wgt id='1008'> +1.4787000e+02 </wgt>
<wgt id='1009'> +1.3985000e+02 </wgt>
<wgt id='1010'> +1.5303000e+02 </wgt>
<wgt id='1011'> +1.5480000e+02 </wgt>
<wgt id='1012'> +1.3536000e+02 </wgt>
<wgt id='1013'> +1.3623000e+02 </wgt>
<wgt id='1014'> +1.5195000e+02 </wgt>
<wgt id='1015'> +1.5636000e+02 </wgt>
<wgt id='1016'> +1.3834000e+02 </wgt>
<wgt id='1017'> +1.5556000e+02 </wgt>
<wgt id='1018'> +1.6200000e+02 </wgt>
<wgt id='1019'> +1.4935000e+02 </wgt>
<wgt id='1020'> +1.7099000e+02 </wgt>
<wgt id='1021'> +1.5053000e+02 </wgt>
<wgt id='1022'> +1.5807000e+02 </wgt>
<wgt id='1023'> +1.4140000e+02 </wgt>
<wgt id='1024'> +1.4105000e+02 </wgt>
<wgt id='1025'> +1.6483000e+02 </wgt>
<wgt id='1026'> +1.4444000e+02 </wgt>
<wgt id='1027'> +1.5660000e+02 </wgt>
<wgt id='1028'> +1.5835000e+02 </wgt>
<wgt id='1029'> +1.5376000e+02 </wgt>
<wgt id='1030'> +1.4447000e+02 </wgt>
<wgt id='1031'> +1.5234000e+02 </wgt>
<wgt id='1032'> +1.5855000e+02 </wgt>
<wgt id='1033'> +1.6193000e+02 </wgt>
<wgt id='1034'> +1.3940000e+02 </wgt>
<wgt id='1035'> +1.5241000e+02 </wgt>
<wgt id='1036'> +1.5442000e+02 </wgt>
<wgt id='1037'> +1.6262000e+02 </wgt>
<wgt id='1038'> +1.7278000e+02 </wgt>
<wgt id='1039'> +1.5387000e+02 </wgt>
<wgt id='1040'> +1.5489000e+02 </wgt>
<wgt id='1041'> +1.3197000e+02 </wgt>
<wgt id='1042'> +1.5256000e+02 </wgt>
<wgt id='1043'> +1.4802000e+02 </wgt>
<wgt id='1044'> +1.5727000e+02 </wgt>
<wgt id='1045'> +1.5078000e+02 </wgt>
<wgt id='1046'> +1.6178000e+02 </wgt>
<wgt id='1047'> +1.4628000e+02 </wgt>
<wgt id='1048'> +1.5978000e+02 </wgt>
<wgt id='1049'> +1.5268000e+02 </wgt>
<wgt id='1050'> +1.4222000e+02 </wgt>
<wgt id='1051'> +1.5086000e+02 </wgt>
<wgt id='1052'> +1.5467000e+02 </wgt>
<wgt id='1053'> +1.5302000e+02 </wgt>
<wgt id='1054'> +1.5130000e+02 </wgt>
<wgt id='1055'> +1.3976000e+02 </wgt>
<wgt id='1056'> +1.4522000e+02 </wgt>
<wgt id='1057'> +1.5106000e+02 </wgt>
<wgt id='1058'> +1.5054000e+02 </wgt>
<wgt id='1059'> +1.6782000e+02 </wgt>
<wgt id='1060'> +1.4769000e+02 </wgt>
<wgt id='1061'> +1.5860000e+02 </wgt>
<wgt id='1062'> +1.4777000e+02 </wgt>
<wgt id='1063'> +1.6129000e+02 </wgt>
<wgt id='1064'> +1.5128000e+02 </wgt>
<wgt id='1065'> +1.4583000e+02 </wgt>
<wgt id='1066'> +1.8023000e+02 </wgt>
<wgt id='1067'> +1.5280000e+02 </wgt>
<wgt id='1068'> +1.5580000e+02 </wgt>
<wgt id='1069'> +1.5362000e+02 </wgt>
<wgt id='1070'> +1.4469000e+02 </wgt>
<wgt id='1071'> +1.4646000e+02 </wgt>
<wgt id='1072'> +1.4799000e+02 </wgt>
<wgt id='1073'> +1.5167000e+02 </wgt>
<wgt id='1074'> +1.5373000e+02 </wgt>
<wgt id='1075'> +1.1690000e+02 </wgt>
<wgt id='1076'> +1.6072000e+02 </wgt>
<wgt id='1077'> +1.5046000e+02 </wgt>
<wgt id='1078'> +1.4836000e+02 </wgt>
<wgt id='1079'> +1.4954000e+02 </wgt>
<wgt id='1080'> +1.5603000e+02 </wgt>
<wgt id='1081'> +1.4935000e+02 </wgt>
<wgt id='1082'> +1.5143000e+02 </wgt>
<wgt id='1083'> +1.4801000e+02 </wgt>
<wgt id='1084'> +1.3284000e+02 </wgt>
<wgt id='1085'> +1.5907000e+02 </wgt>
<wgt id='1086'> +1.4854000e+02 </wgt>
<wgt id='1087'> +1.5255000e+02 </wgt>
<wgt id='1088'> +1.4548000e+02 </wgt>
<wgt id='1089'> +1.5872000e+02 </wgt>
<wgt id='1090'> +1.4322000e+02 </wgt>
<wgt id='1091'> +1.6199000e+02 </wgt>
<wgt id='1092'> +1.4300000e+02 </wgt>
<wgt id='1093'> +1.5038000e+02 </wgt>
<wgt id='1094'> +1.4924000e+02 </wgt>
<wgt id='1095'> +1.5485000e+02 </wgt>
<wgt id='1096'> +1.4338000e+02 </wgt>
<wgt id='1097'> +1.5162000e+02 </wgt>
<wgt id='1098'> +1.4650000e+02 </wgt>
<wgt id='1099'> +1.5466000e+02 </wgt>
<wgt id='1100'> +1.5930000e+02 </wgt>
<wgt id='1101'> +1.6627000e+02 </wgt>
<wgt id='1102'> +1.6496000e+02 </wgt>
<wgt id='1103'> +1.4835000e+02 </wgt>
<wgt id='1104'> +1.5528000e+02 </wgt>
<wgt id='1105'> +1.5146096e+02 </wgt>
<wgt id='1106'> +6.1657711e+01 </wgt>
<wgt id='1107'> +9.5335865e+01 </wgt>
<wgt id='1108'> +7.6128142e+01 </wgt>
<wgt id='1109'> +6.1981477e+01 </wgt>
<wgt id='1110'> +9.5836475e+01 </wgt>
<wgt id='1111'> +7.4189133e+01 </wgt>
<wgt id='1112'> +6.0402788e+01 </wgt>
<wgt id='1113'> +9.3395488e+01 </wgt>
<wgt id='1114'> +7.9092207e+01 </wgt>
<wgt id='1115'> +5.9961904e+01 </wgt>
<wgt id='1116'> +7.9693486e+01 </wgt>
<wgt id='1117'> +7.3678758e+01 </wgt>
<wgt id='1118'> +8.1462645e+01 </wgt>
<wgt id='1119'> +7.6851190e+01 </wgt>
<wgt id='1120'> +8.0632376e+01 </wgt>
<wgt id='1121'> +7.7630896e+01 </wgt>
<wgt id='1122'> +7.7315443e+01 </wgt>
<wgt id='1123'> +7.8708841e+01 </wgt>
<wgt id='1124'> +7.7626594e+01 </wgt>
<wgt id='1125'> +7.3214580e+01 </wgt>
<wgt id='1126'> +8.4474493e+01 </wgt>
<wgt id='1127'> +8.5363728e+01 </wgt>
<wgt id='1128'> +6.8038297e+01 </wgt>
<wgt id='1129'> +7.5502193e+01 </wgt>
<wgt id='1130'> +7.8038597e+01 </wgt>
<wgt id='1131'> +7.4613097e+01 </wgt>
<wgt id='1132'> +7.3137110e+01 </wgt>
<wgt id='1133'> +8.3189116e+01 </wgt>
<wgt id='1134'> +8.9198590e+01 </wgt>
<wgt id='1135'> +7.8911751e+01 </wgt>
<wgt id='1136'> +7.7580048e+01 </wgt>
<wgt id='1137'> +7.8679060e+01 </wgt>
<wgt id='1138'> +7.8969444e+01 </wgt>
<wgt id='1139'> +8.2876471e+01 </wgt>
<wgt id='1140'> +7.4502616e+01 </wgt>
<wgt id='1141'> +8.1625158e+01 </wgt>
<wgt id='1142'> +7.6686780e+01 </wgt>
<wgt id='1143'> +8.2075545e+01 </wgt>
<wgt id='1144'> +7.8449027e+01 </wgt>
<wgt id='1145'> +7.3441935e+01 </wgt>
<wgt id='1146'> +7.9285371e+01 </wgt>
<wgt id='1147'> +7.6805097e+01 </wgt>
<wgt id='1148'> +7.4738406e+01 </wgt>
<wgt id='1149'> +7.5475280e+01 </wgt>
<wgt id='1150'> +7.6802282e+01 </wgt>
<wgt id='1151'> +7.9014029e+01 </wgt>
<wgt id='1152'> +8.1815253e+01 </wgt>
<wgt id='1153'> +8.0444761e+01 </wgt>
<wgt id='1154'> +8.0900161e+01 </wgt>
<wgt id='1155'> +8.2848717e+01 </wgt>
<wgt id='1156'> +7.7807956e+01 </wgt>
<wgt id='1157'> +7.9655537e+01 </wgt>
<wgt id='1158'> +8.2300756e+01 </wgt>
<wgt id='1159'> +8.0800390e+01 </wgt>
<wgt id='1160'> +7.8971208e+01 </wgt>
<wgt id='1161'> +8.0389108e+01 </wgt>
<wgt id='1162'> +6.6918064e+01 </wgt>
<wgt id='1163'> +7.9869029e+01 </wgt>
<wgt id='1164'> +8.2344472e+01 </wgt>
<wgt id='1165'> +7.8180659e+01 </wgt>
<wgt id='1166'> +8.3730228e+01 </wgt>
<wgt id='1167'> +7.8357175e+01 </wgt>
<wgt id='1168'> +7.9316144e+01 </wgt>
<wgt id='1169'> +7.1455724e+01 </wgt>
<wgt id='1170'> +7.9027634e+01 </wgt>
<wgt id='1171'> +7.7882813e+01 </wgt>
<wgt id='1172'> +7.8482557e+01 </wgt>
<wgt id='1173'> +8.3165906e+01 </wgt>
<wgt id='1174'> +7.5810733e+01 </wgt>
<wgt id='1175'> +7.6967115e+01 </wgt>
<wgt id='1176'> +7.5277051e+01 </wgt>
<wgt id='1177'> +8.1099748e+01 </wgt>
<wgt id='1178'> +7.4882212e+01 </wgt>
<wgt id='1179'> +7.9035037e+01 </wgt>
<wgt id='1180'> +7.3063898e+01 </wgt>
<wgt id='1181'> +7.7050898e+01 </wgt>
<wgt id='1182'> +8.5041099e+01 </wgt>
<wgt id='1183'> +8.4972732e+01 </wgt>
<wgt id='1184'> +7.7199137e+01 </wgt>
<wgt id='1185'> +8.1851465e+01 </wgt>
<wgt id='1186'> +8.2618666e+01 </wgt>
<wgt id='1187'> +9.5355140e+01 </wgt>
<wgt id='1188'> +9.2163150e+01 </wgt>
<wgt id='1189'> +8.3413874e+01 </wgt>
<wgt id='1190'> +8.4303074e+01 </wgt>
<wgt id='1191'> +8.0640618e+01 </wgt>
<wgt id='1192'> +8.5144662e+01 </wgt>
<wgt id='1193'> +8.3606840e+01 </wgt>
<wgt id='1194'> +7.2622042e+01 </wgt>
<wgt id='1195'> +7.8586552e+01 </wgt>
<wgt id='1196'> +7.8038597e+01 </wgt>
<wgt id='1197'> +9.0840965e+01 </wgt>
<wgt id='1198'> +7.6652081e+01 </wgt>
<wgt id='1199'> +8.0815445e+01 </wgt>
<wgt id='1200'> +5.9692313e+01 </wgt>
<wgt id='1201'> +8.1052169e+01 </wgt>
<wgt id='1202'> +7.2313616e+01 </wgt>
<wgt id='1203'> +1.0042112e+02 </wgt>
<wgt id='1204'> +8.4579583e+01 </wgt>
<wgt id='1205'> +7.7368402e+01 </wgt>
<wgt id='1206'> +8.5121483e+01 </wgt>
<wgt id='1207'> +8.2240950e+01 </wgt>
<wgt id='1208'> +7.5929419e+01 </wgt>
<wgt id='1209'> +7.1440909e+01 </wgt>
<wgt id='1210'> +7.7852687e+01 </wgt>
<wgt id='1211'> +7.3752947e+01 </wgt>
<wgt id='1212'> +8.4092626e+01 </wgt>
<wgt id='1213'> +8.1467668e+01 </wgt>
<wgt id='1214'> +7.7600277e+01 </wgt>
<wgt id='1215'> +7.3984206e+01 </wgt>
<wgt id='1216'> +7.7796110e+01 </wgt>
<wgt id='1217'> +7.7887362e+01 </wgt>
<wgt id='1218'> +7.7696545e+01 </wgt>
<wgt id='1219'> +7.7860488e+01 </wgt>
<wgt id='1220'> +7.7417312e+01 </wgt>
<wgt id='1221'> +7.7867651e+01 </wgt>
<wgt id='1222'> +7.8040201e+01 </wgt>
<wgt id='1223'> +7.8270822e+01 </wgt>
<wgt id='1224'> +7.8252141e+01 </wgt>
<wgt id='1225'> +7.8231847e+01 </wgt>
<wgt id='1226'> +7.8531447e+01 </wgt>
<wgt id='1227'> +7.7909457e+01 </wgt>
<wgt id='1228'> +7.7833586e+01 </wgt>
<wgt id='1229'> +7.7729764e+01 </wgt>
<wgt id='1230'> +7.7607501e+01 </wgt>
<wgt id='1231'> +7.8701846e+01 </wgt>
<wgt id='1232'> +7.7712192e+01 </wgt>
<wgt id='1233'> +7.8217888e+01 </wgt>
<wgt id='1234'> +7.7602434e+01 </wgt>
<wgt id='1235'> +7.7482646e+01 </wgt>
<wgt id='1236'> +7.8086381e+01 </wgt>
<wgt id='1237'> +7.6730117e+01 </wgt>
<wgt id='1238'> +7.7619150e+01 </wgt>
<wgt id='1239'> +7.7177938e+01 </wgt>
<wgt id='1240'> +7.7381724e+01 </wgt>
<wgt id='1241'> +7.8519369e+01 </wgt>
<wgt id='1242'> +7.8079024e+01 </wgt>
<wgt id='1243'> +7.7660030e+01 </wgt>
<wgt id='1244'> +7.7873674e+01 </wgt>
<wgt id='1245'> +7.6819151e+01 </wgt>
<wgt id='1246'> +7.7733175e+01 </wgt>
<wgt id='1247'> +7.8282193e+01 </wgt>
<wgt id='1248'> +7.7730957e+01 </wgt>
<wgt id='1249'> +7.7964568e+01 </wgt>
<wgt id='1250'> +7.7702244e+01 </wgt>
<wgt id='1251'> +7.7667051e+01 </wgt>
<wgt id='1252'> +7.7763306e+01 </wgt>
<wgt id='1253'> +7.8024498e+01 </wgt>
<wgt id='1254'> +7.7832312e+01 </wgt>
<wgt id='1255'> +7.7483003e+01 </wgt>
<wgt id='1256'> +7.7837325e+01 </wgt>
<wgt id='1257'> +7.7657931e+01 </wgt>
<wgt id='1258'> +7.8668738e+01 </wgt>
<wgt id='1259'> +7.8486110e+01 </wgt>
<wgt id='1260'> +7.8029824e+01 </wgt>
<wgt id='1261'> +7.8553778e+01 </wgt>
<wgt id='1262'> +7.7156760e+01 </wgt>
<wgt id='1263'> +7.6850985e+01 </wgt>
<wgt id='1264'> +7.7645390e+01 </wgt>
<wgt id='1265'> +7.8086201e+01 </wgt>
<wgt id='1266'> +7.6935244e+01 </wgt>
<wgt id='1267'> +7.7336999e+01 </wgt>
<wgt id='1268'> +7.8104912e+01 </wgt>
<wgt id='1269'> +7.8065901e+01 </wgt>
<wgt id='1270'> +7.7473183e+01 </wgt>
<wgt id='1271'> +7.7229511e+01 </wgt>
<wgt id='1272'> +7.9161480e+01 </wgt>
<wgt id='1273'> +7.7669483e+01 </wgt>
<wgt id='1274'> +7.8337526e+01 </wgt>
<wgt id='1275'> +7.7746668e+01 </wgt>
<wgt id='1276'> +7.7716636e+01 </wgt>
<wgt id='1277'> +7.7499028e+01 </wgt>
<wgt id='1278'> +7.8101398e+01 </wgt>
<wgt id='1279'> +7.7780318e+01 </wgt>
<wgt id='1280'> +7.7736267e+01 </wgt>
<wgt id='1281'> +7.8171464e+01 </wgt>
<wgt id='1282'> +7.7868080e+01 </wgt>
<wgt id='1283'> +7.7309410e+01 </wgt>
<wgt id='1284'> +7.7377903e+01 </wgt>
<wgt id='1285'> +7.7576798e+01 </wgt>
<wgt id='1286'> +7.7326847e+01 </wgt>
<wgt id='1287'> +7.7315426e+01 </wgt>
<wgt id='1288'> +7.7944643e+01 </wgt>
<wgt id='1289'> +7.7894081e+01 </wgt>
<wgt id='1290'> +7.8584018e+01 </wgt>
<wgt id='1291'> +7.7546033e+01 </wgt>
<wgt id='1292'> +7.7402681e+01 </wgt>
<wgt id='1293'> +7.7944763e+01 </wgt>
<wgt id='1294'> +7.7629321e+01 </wgt>
<wgt id='1295'> +7.8164881e+01 </wgt>
<wgt id='1296'> +7.7717719e+01 </wgt>
<wgt id='1297'> +7.8093496e+01 </wgt>
<wgt id='1298'> +7.7481493e+01 </wgt>
<wgt id='1299'> +7.7975443e+01 </wgt>
<wgt id='1300'> +7.7525790e+01 </wgt>
<wgt id='1301'> +7.7897104e+01 </wgt>
<wgt id='1302'> +7.7618354e+01 </wgt>
<wgt id='1303'> +7.8000044e+01 </wgt>
<wgt id='1304'> +7.7446911e+01 </wgt>
<wgt id='1305'> +7.8129109e+01 </wgt>
<wgt id='1306'> +7.7780328e+01 </wgt>
<wgt id='1307'> +7.7828239e+01 </wgt>
<wgt id='1308'> +7.7999105e+01 </wgt>
<wgt id='1309'> +7.7426232e+01 </wgt>
<wgt id='1310'> +7.8039432e+01 </wgt>
<wgt id='1311'> +7.8192384e+01 </wgt>
<wgt id='1312'> +7.7762080e+01 </wgt>
<wgt id='1313'> +7.7818031e+01 </wgt>
<wgt id='1314'> +7.7746476e+01 </wgt>
<wgt id='1315'> +7.7636415e+01 </wgt>
<wgt id='1316'> +7.8060545e+01 </wgt>
<wgt id='1317'> +7.5672746e+01 </wgt>
<wgt id='1318'> +8.0886730e+01 </wgt>
<wgt id='1319'> +3.8203538e+01 </wgt>
<wgt id='1320'> +7.5396279e+01 </wgt>
<wgt id='1321'> +7.5579126e+01 </wgt>
<wgt id='1322'> +7.5713877e+01 </wgt>
<wgt id='1323'> +7.7209987e+01 </wgt>
<wgt id='1324'> +7.2923815e+01 </wgt>
<wgt id='1325'> +7.6924286e+01 </wgt>
<wgt id='1326'> +7.4657586e+01 </wgt>
<wgt id='1327'> +7.5420130e+01 </wgt>
<wgt id='1328'> +7.5009844e+01 </wgt>
<wgt id='1329'> +7.5318381e+01 </wgt>
<wgt id='1330'> +7.4672738e+01 </wgt>
<wgt id='1331'> +7.3734791e+01 </wgt>
<wgt id='1332'> +7.6700411e+01 </wgt>
<wgt id='1333'> +7.6992717e+01 </wgt>
<wgt id='1334'> +7.3754578e+01 </wgt>
<wgt id='1335'> +6.5411034e+01 </wgt>
<wgt id='1336'> +8.5965562e+01 </wgt>
<wgt id='1337'> +7.3574769e+01 </wgt>
<wgt id='1338'> +7.7478810e+01 </wgt>
<wgt id='1339'> +7.4603444e+01 </wgt>
<wgt id='1340'> +7.6223835e+01 </wgt>
<wgt id='1341'> +7.3804785e+01 </wgt>
<wgt id='1342'> +7.8461130e+01 </wgt>
<wgt id='1343'> +7.5066335e+01 </wgt>
<wgt id='1344'> +7.5644981e+01 </wgt>
<wgt id='1345'> +7.7412005e+01 </wgt>
<wgt id='1346'> +7.3572322e+01 </wgt>
<wgt id='1347'> +7.5213957e+01 </wgt>
<wgt id='1348'> +7.5600944e+01 </wgt>
<wgt id='1349'> +7.6165021e+01 </wgt>
<wgt id='1350'> +7.5130884e+01 </wgt>
<wgt id='1351'> +7.5293748e+01 </wgt>
<wgt id='1352'> +7.5504902e+01 </wgt>
<wgt id='1353'> +7.5129017e+01 </wgt>
<wgt id='1354'> +7.5919121e+01 </wgt>
<wgt id='1355'> +7.4622292e+01 </wgt>
<wgt id='1356'> +7.6203653e+01 </wgt>
<wgt id='1357'> +7.6618030e+01 </wgt>
<wgt id='1358'> +7.3318775e+01 </wgt>
<wgt id='1359'> +8.0527924e+01 </wgt>
<wgt id='1360'> +7.0717922e+01 </wgt>
<wgt id='1361'> +7.4957176e+01 </wgt>
<wgt id='1362'> +7.6049225e+01 </wgt>
<wgt id='1363'> +7.4347950e+01 </wgt>
<wgt id='1364'> +7.6769049e+01 </wgt>
<wgt id='1365'> +7.1447881e+01 </wgt>
<wgt id='1366'> +7.8007853e+01 </wgt>
<wgt id='1367'> +7.5155566e+01 </wgt>
<wgt id='1368'> +7.3388702e+01 </wgt>
<wgt id='1369'> +7.5434490e+01 </wgt>
<wgt id='1370'> +7.1866161e+01 </wgt>
<wgt id='1371'> +7.4926340e+01 </wgt>
<wgt id='1372'> +7.4603287e+01 </wgt>
<wgt id='1373'> +7.3130867e+01 </wgt>
<wgt id='1374'> +7.6749984e+01 </wgt>
<wgt id='1375'> +7.4686748e+01 </wgt>
<wgt id='1376'> +6.8423598e+01 </wgt>
<wgt id='1377'> +7.2177584e+01 </wgt>
<wgt id='1378'> +7.8573687e+01 </wgt>
<wgt id='1379'> +7.9085051e+01 </wgt>
<wgt id='1380'> +7.5765787e+01 </wgt>
<wgt id='1381'> +8.2071719e+01 </wgt>
<wgt id='1382'> +5.8612392e+01 </wgt>
<wgt id='1383'> +8.4839343e+01 </wgt>
<wgt id='1384'> +7.9341071e+01 </wgt>
<wgt id='1385'> +9.4661969e+01 </wgt>
<wgt id='1386'> +9.4824999e+01 </wgt>
<wgt id='1387'> +9.4471779e+01 </wgt>
<wgt id='1388'> +9.4620618e+01 </wgt>
<wgt id='1389'> +9.4723595e+01 </wgt>
<wgt id='1390'> +9.4416301e+01 </wgt>
<wgt id='1391'> +9.4949493e+01 </wgt>
<wgt id='1392'> +9.3902073e+01 </wgt>
<wgt id='1393'> +9.5188563e+01 </wgt>
<wgt id='1394'> +9.4728877e+01 </wgt>
<wgt id='1395'> +9.4575374e+01 </wgt>
<wgt id='1396'> +9.3921832e+01 </wgt>
<wgt id='1397'> +9.5045728e+01 </wgt>
<wgt id='1398'> +9.5149966e+01 </wgt>
<wgt id='1399'> +9.4294533e+01 </wgt>
<wgt id='1400'> +9.4312311e+01 </wgt>
<wgt id='1401'> +9.4927171e+01 </wgt>
<wgt id='1402'> +9.4138148e+01 </wgt>
<wgt id='1403'> +9.4902031e+01 </wgt>
<wgt id='1404'> +9.6514738e+01 </wgt>
<wgt id='1405'> +9.3755517e+01 </wgt>
<wgt id='1406'> +9.5639141e+01 </wgt>
<wgt id='1407'> +9.2883464e+01 </wgt>
<wgt id='1408'> +9.5702858e+01 </wgt>
<wgt id='1409'> +9.2569739e+01 </wgt>
<wgt id='1410'> +9.4826587e+01 </wgt>
<wgt id='1411'> +9.4191926e+01 </wgt>
<wgt id='1412'> +9.4076906e+01 </wgt>
<wgt id='1413'> +9.5499594e+01 </wgt>
<wgt id='1414'> +9.4752091e+01 </wgt>
<wgt id='1415'> +9.4620658e+01 </wgt>
<wgt id='1416'> +9.4835780e+01 </wgt>
<wgt id='1417'> +9.4552060e+01 </wgt>
<wgt id='1418'> +9.5774365e+01 </wgt>
<wgt id='1419'> +9.2256334e+01 </wgt>
<wgt id='1420'> +9.3975723e+01 </wgt>
<wgt id='1421'> +9.4805417e+01 </wgt>
<wgt id='1422'> +9.3355092e+01 </wgt>
<wgt id='1423'> +9.6088026e+01 </wgt>
<wgt id='1424'> +9.5286671e+01 </wgt>
<wgt id='1425'> +9.3591208e+01 </wgt>
<wgt id='1426'> +9.0489999e+01 </wgt>
<wgt id='1427'> +9.7400396e+01 </wgt>
<wgt id='1428'> +9.2807570e+01 </wgt>
<wgt id='1429'> +9.6606239e+01 </wgt>
<wgt id='1430'> +9.4264281e+01 </wgt>
<wgt id='1431'> +9.2866362e+01 </wgt>
<wgt id='1432'> +9.4023184e+01 </wgt>
<wgt id='1433'> +9.3024956e+01 </wgt>
<wgt id='1434'> +9.4164683e+01 </wgt>
<wgt id='1435'> +9.5045174e+01 </wgt>
<wgt id='1436'> +7.2030558e+01 </wgt>
<wgt id='1437'> +7.2024168e+01 </wgt>
<wgt id='1438'> +7.2054279e+01 </wgt>
<wgt id='1439'> +7.2033352e+01 </wgt>
<wgt id='1440'> +7.1912781e+01 </wgt>
<wgt id='1441'> +7.1321489e+01 </wgt>
<wgt id='1442'> +7.1365887e+01 </wgt>
<wgt id='1443'> +7.1948565e+01 </wgt>
<wgt id='1444'> +7.1727963e+01 </wgt>
<wgt id='1445'> +7.1502863e+01 </wgt>
<wgt id='1446'> +7.2007896e+01 </wgt>
<wgt id='1447'> +7.2031625e+01 </wgt>
<wgt id='1448'> +7.1412047e+01 </wgt>
<wgt id='1449'> +7.1887775e+01 </wgt>
<wgt id='1450'> +7.1990006e+01 </wgt>
<wgt id='1451'> +7.1905247e+01 </wgt>
<wgt id='1452'> +7.1807409e+01 </wgt>
<wgt id='1453'> +7.2310505e+01 </wgt>
<wgt id='1454'> +7.2254980e+01 </wgt>
<wgt id='1455'> +7.1957828e+01 </wgt>
<wgt id='1456'> +7.1985062e+01 </wgt>
<wgt id='1457'> +7.2084407e+01 </wgt>
<wgt id='1458'> +7.2738857e+01 </wgt>
<wgt id='1459'> +7.2503541e+01 </wgt>
<wgt id='1460'> +7.2003418e+01 </wgt>
<wgt id='1461'> +7.2486896e+01 </wgt>
<wgt id='1462'> +7.1705335e+01 </wgt>
<wgt id='1463'> +7.2075242e+01 </wgt>
<wgt id='1464'> +7.1745596e+01 </wgt>
<wgt id='1465'> +8.2465309e+01 </wgt>
<wgt id='1466'> +7.8367095e+01 </wgt>
<wgt id='1467'> +7.8837176e+01 </wgt>
<wgt id='1468'> +7.9593803e+01 </wgt>
<wgt id='1469'> +7.6938422e+01 </wgt>
<wgt id='1470'> +7.8748976e+01 </wgt>
<wgt id='1471'> +7.7161827e+01 </wgt>
<wgt id='1472'> +8.0010930e+01 </wgt>
<wgt id='1473'> +7.7372347e+01 </wgt>
<wgt id='1474'> +7.9312933e+01 </wgt>
<wgt id='1475'> +7.8021033e+01 </wgt>
<wgt id='1476'> +7.8657496e+01 </wgt>
<wgt id='1477'> +8.0492584e+01 </wgt>
<wgt id='1478'> +7.8391542e+01 </wgt>
<wgt id='1479'> +7.6289207e+01 </wgt>
<wgt id='1480'> +8.0637251e+01 </wgt>
<wgt id='1481'> +7.7260665e+01 </wgt>
<wgt id='1482'> +8.2688042e+01 </wgt>
<wgt id='1483'> +7.6824439e+01 </wgt>
<wgt id='1484'> +7.5620607e+01 </wgt>
<wgt id='1485'> +8.0946886e+01 </wgt>
<wgt id='1486'> +8.1203546e+01 </wgt>
<wgt id='1487'> +7.7771972e+01 </wgt>
<wgt id='1488'> +7.7317239e+01 </wgt>
<wgt id='1489'> +7.5803371e+01 </wgt>
<wgt id='1490'> +7.8418481e+01 </wgt>
<wgt id='1491'> +7.8551506e+01 </wgt>
<wgt id='1492'> +7.8927327e+01 </wgt>
<wgt id='1493'> +7.6653199e+01 </wgt>
<wgt id='1494'> +7.7787304e+01 </wgt>
<wgt id='1495'> +7.9445714e+01 </wgt>
<wgt id='1496'> +7.9182427e+01 </wgt>
<wgt id='1497'> +7.8433706e+01 </wgt>
<wgt id='1498'> +7.7684267e+01 </wgt>
<wgt id='1499'> +7.8355376e+01 </wgt>
<wgt id='1500'> +7.9110575e+01 </wgt>
<wgt id='1501'> +7.8254118e+01 </wgt>
<wgt id='1502'> +7.8942729e+01 </wgt>
<wgt id='1503'> +7.8483951e+01 </wgt>
<wgt id='1504'> +7.8480657e+01 </wgt>
<wgt id='1505'> +7.8109347e+01 </wgt>
<wgt id='1506'> +7.8442606e+01 </wgt>
<wgt id='1507'> +7.8936866e+01 </wgt>
<wgt id='1508'> +7.8415153e+01 </wgt>
<wgt id='1509'> +7.7974136e+01 </wgt>
<wgt id='1510'> +7.8697310e+01 </wgt>
<wgt id='1511'> +7.8011780e+01 </wgt>
<wgt id='1512'> +7.8930492e+01 </wgt>
<wgt id='1513'> +7.7766993e+01 </wgt>
<wgt id='1514'> +7.7627347e+01 </wgt>
<wgt id='1515'> +7.8202648e+01 </wgt>
<wgt id='1516'> +7.7890533e+01 </wgt>
<wgt id='1517'> +7.7557715e+01 </wgt>
<wgt id='1518'> +7.7848676e+01 </wgt>
<wgt id='1519'> +7.7972019e+01 </wgt>
<wgt id='1520'> +7.8184217e+01 </wgt>
<wgt id='1521'> +7.8105874e+01 </wgt>
<wgt id='1522'> +7.7705386e+01 </wgt>
<wgt id='1523'> +7.7995056e+01 </wgt>
<wgt id='1524'> +7.8652618e+01 </wgt>
<wgt id='1525'> +7.8465703e+01 </wgt>
<wgt id='1526'> +7.8191042e+01 </wgt>
<wgt id='1527'> +7.8149787e+01 </wgt>
<wgt id='1528'> +7.8480954e+01 </wgt>
<wgt id='1529'> +7.8306388e+01 </wgt>
<wgt id='1530'> +7.8319770e+01 </wgt>
<wgt id='1531'> +7.8448138e+01 </wgt>
<wgt id='1532'> +7.8237502e+01 </wgt>
<wgt id='1533'> +7.8357409e+01 </wgt>
<wgt id='1534'> +7.8682366e+01 </wgt>
<wgt id='1535'> +7.8519272e+01 </wgt>
<wgt id='1536'> +7.8324383e+01 </wgt>
<wgt id='1537'> +7.8509075e+01 </wgt>
<wgt id='1538'> +7.8800315e+01 </wgt>
<wgt id='1539'> +7.8353087e+01 </wgt>
<wgt id='1540'> +7.8406469e+01 </wgt>
<wgt id='1541'> +7.8339536e+01 </wgt>
<wgt id='1542'> +7.8440876e+01 </wgt>
<wgt id='1543'> +7.8266362e+01 </wgt>
<wgt id='1544'> +7.8186246e+01 </wgt>
<wgt id='1545'> +7.8415424e+01 </wgt>
<wgt id='1546'> +7.8272925e+01 </wgt>
<wgt id='1547'> +7.8405652e+01 </wgt>
<wgt id='1548'> +7.8287863e+01 </wgt>
<wgt id='1549'> +7.8338443e+01 </wgt>
<wgt id='1550'> +7.8570922e+01 </wgt>
<wgt id='1551'> +7.8275223e+01 </wgt>
<wgt id='1552'> +7.8480840e+01 </wgt>
<wgt id='1553'> +7.8194367e+01 </wgt>
<wgt id='1554'> +7.8250014e+01 </wgt>
<wgt id='1555'> +7.8387649e+01 </wgt>
<wgt id='1556'> +7.8288916e+01 </wgt>
<wgt id='1557'> +7.8324424e+01 </wgt>
<wgt id='1558'> +7.8299280e+01 </wgt>
<wgt id='1559'> +7.8383980e+01 </wgt>
<wgt id='1560'> +7.8337515e+01 </wgt>
<wgt id='1561'> +7.8388523e+01 </wgt>
<wgt id='1562'> +7.8367964e+01 </wgt>
<wgt id='1563'> +7.8337438e+01 </wgt>
<wgt id='1564'> +7.8417950e+01 </wgt>
<wgt id='1565'> +7.8324637e+01 </wgt>
<wgt id='1566'> +7.8322542e+01 </wgt>
<wgt id='1567'> +7.5876081e+01 </wgt>
<wgt id='1568'> +8.1390697e+01 </wgt>
<wgt id='1569'> +7.7489768e+01 </wgt>
<wgt id='1570'> +7.8515127e+01 </wgt>
<wgt id='1571'> +7.7438833e+01 </wgt>
<wgt id='1572'> +7.7804756e+01 </wgt>
<wgt id='1573'> +7.6708087e+01 </wgt>
<wgt id='1574'> +7.6642148e+01 </wgt>
<wgt id='1575'> +7.6375342e+01 </wgt>
<wgt id='1576'> +7.5499186e+01 </wgt>
<wgt id='1577'> +7.7331271e+01 </wgt>
<wgt id='1578'> +7.7931779e+01 </wgt>
<wgt id='1579'> +7.8537640e+01 </wgt>
<wgt id='1580'> +7.5385123e+01 </wgt>
<wgt id='1581'> +7.7438793e+01 </wgt>
<wgt id='1582'> +7.7483231e+01 </wgt>
<wgt id='1583'> +7.6785808e+01 </wgt>
<wgt id='1584'> +7.7535651e+01 </wgt>
<wgt id='1585'> +7.6725099e+01 </wgt>
<wgt id='1586'> +8.0052676e+01 </wgt>
<wgt id='1587'> +7.4274561e+01 </wgt>
<wgt id='1588'> +7.9177472e+01 </wgt>
<wgt id='1589'> +7.7323428e+01 </wgt>
<wgt id='1590'> +7.8165734e+01 </wgt>
<wgt id='1591'> +8.0735454e+01 </wgt>
<wgt id='1592'> +8.0325381e+01 </wgt>
<wgt id='1593'> +7.6183997e+01 </wgt>
<wgt id='1594'> +7.7170918e+01 </wgt>
<wgt id='1595'> +7.9921742e+01 </wgt>
<wgt id='1596'> +7.6136704e+01 </wgt>
<wgt id='1597'> +7.7886943e+01 </wgt>
<wgt id='1598'> +7.9014394e+01 </wgt>
<wgt id='1599'> +7.7422520e+01 </wgt>
<wgt id='1600'> +7.8237926e+01 </wgt>
<wgt id='1601'> +7.5983867e+01 </wgt>
<wgt id='1602'> +7.7595904e+01 </wgt>
<wgt id='1603'> +7.6586295e+01 </wgt>
<wgt id='1604'> +7.7188185e+01 </wgt>
<wgt id='1605'> +7.7738885e+01 </wgt>
<wgt id='1606'> +7.7869185e+01 </wgt>
<wgt id='1607'> +7.6951536e+01 </wgt>
<wgt id='1608'> +7.7132000e+01 </wgt>
<wgt id='1609'> +7.7451700e+01 </wgt>
<wgt id='1610'> +7.8089386e+01 </wgt>
<wgt id='1611'> +7.7529441e+01 </wgt>
<wgt id='1612'> +7.7262405e+01 </wgt>
<wgt id='1613'> +7.7636178e+01 </wgt>
<wgt id='1614'> +7.7817281e+01 </wgt>
<wgt id='1615'> +7.6765239e+01 </wgt>
<wgt id='1616'> +7.7828812e+01 </wgt>
<wgt id='1617'> +7.7809716e+01 </wgt>
<wgt id='1618'> +7.6550980e+01 </wgt>
<wgt id='1619'> +7.7999501e+01 </wgt>
<wgt id='1620'> +7.8014993e+01 </wgt>
<wgt id='1621'> +7.7525420e+01 </wgt>
<wgt id='1622'> +7.7377369e+01 </wgt>
<wgt id='1623'> +7.7072134e+01 </wgt>
<wgt id='1624'> +7.7375954e+01 </wgt>
<wgt id='1625'> +7.8190503e+01 </wgt>
<wgt id='1626'> +7.7812699e+01 </wgt>
<wgt id='1627'> +7.7247635e+01 </wgt>
<wgt id='1628'> +7.7458055e+01 </wgt>
<wgt id='1629'> +7.7732091e+01 </wgt>
<wgt id='1630'> +7.7582251e+01 </wgt>
<wgt id='1631'> +7.7387732e+01 </wgt>
<wgt id='1632'> +7.7764802e+01 </wgt>
<wgt id='1633'> +7.7272872e+01 </wgt>
<wgt id='1634'> +7.7558199e+01 </wgt>
<wgt id='1635'> +7.7731571e+01 </wgt>
<wgt id='1636'> +7.7563610e+01 </wgt>
<wgt id='1637'> +7.7522456e+01 </wgt>
<wgt id='1638'> +7.7251980e+01 </wgt>
<wgt id='1639'> +7.7413281e+01 </wgt>
<wgt id='1640'> +7.7542224e+01 </wgt>
<wgt id='1641'> +7.7392939e+01 </wgt>
<wgt id='1642'> +7.7760706e+01 </wgt>
<wgt id='1643'> +7.7324123e+01 </wgt>
<wgt id='1644'> +7.7432967e+01 </wgt>
<wgt id='1645'> +7.7538159e+01 </wgt>
<wgt id='1646'> +7.7337039e+01 </wgt>
<wgt id='1647'> +7.7543124e+01 </wgt>
<wgt id='1648'> +7.7293988e+01 </wgt>
<wgt id='1649'> +7.7523915e+01 </wgt>
<wgt id='1650'> +7.7464518e+01 </wgt>
<wgt id='1651'> +7.7391410e+01 </wgt>
<wgt id='1652'> +7.7388626e+01 </wgt>
<wgt id='1653'> +7.7306017e+01 </wgt>
<wgt id='1654'> +7.7310459e+01 </wgt>
<wgt id='1655'> +7.7439286e+01 </wgt>
<wgt id='1656'> +7.7278749e+01 </wgt>
<wgt id='1657'> +7.7527765e+01 </wgt>
<wgt id='1658'> +7.7414173e+01 </wgt>
<wgt id='1659'> +7.7427180e+01 </wgt>
<wgt id='1660'> +7.7442569e+01 </wgt>
<wgt id='1661'> +7.7442428e+01 </wgt>
<wgt id='1662'> +7.7509990e+01 </wgt>
<wgt id='1663'> +7.7464361e+01 </wgt>
<wgt id='1664'> +7.7474425e+01 </wgt>
<wgt id='1665'> +7.7346520e+01 </wgt>
<wgt id='1666'> +7.7533439e+01 </wgt>
<wgt id='1667'> +7.7367304e+01 </wgt>
<wgt id='1668'> +7.7561890e+01 </wgt>
<wgt id='1669'> +7.7436973e+01 </wgt>
<wgt id='1670'> +7.5209455e+01 </wgt>
<wgt id='1671'> +7.9445188e+01 </wgt>
<wgt id='1672'> +7.8366667e+01 </wgt>
<wgt id='1673'> +7.8942945e+01 </wgt>
<wgt id='1674'> +8.7363959e+01 </wgt>
<wgt id='1675'> +7.8365338e+01 </wgt>
<wgt id='1676'> +7.7167688e+01 </wgt>
<wgt id='1677'> +7.9320844e+01 </wgt>
<wgt id='1678'> +7.7950857e+01 </wgt>
<wgt id='1679'> +7.8357561e+01 </wgt>
<wgt id='1680'> +7.8659414e+01 </wgt>
<wgt id='1681'> +7.8074500e+01 </wgt>
<wgt id='1682'> +7.8623462e+01 </wgt>
<wgt id='1683'> +7.8168580e+01 </wgt>
<wgt id='1684'> +7.8454889e+01 </wgt>
<wgt id='1685'> +7.8544094e+01 </wgt>
<wgt id='1686'> +7.8204773e+01 </wgt>
<wgt id='1687'> +7.8221746e+01 </wgt>
<wgt id='1688'> +7.7973320e+01 </wgt>
<wgt id='1689'> +7.8886905e+01 </wgt>
<wgt id='1690'> +7.8526304e+01 </wgt>
<wgt id='1691'> +7.8409491e+01 </wgt>
<wgt id='1692'> +7.8234581e+01 </wgt>
<wgt id='1693'> +7.8522825e+01 </wgt>
<wgt id='1694'> +7.8306395e+01 </wgt>
<wgt id='1695'> +7.8319413e+01 </wgt>
<wgt id='1696'> +7.8356233e+01 </wgt>
<wgt id='1697'> +7.8360904e+01 </wgt>
<wgt id='1698'> +7.8873445e+01 </wgt>
<wgt id='1699'> +7.8497604e+01 </wgt>
<wgt id='1700'> +7.8991378e+01 </wgt>
<wgt id='1701'> +7.8559661e+01 </wgt>
<wgt id='1702'> +7.8003631e+01 </wgt>
<wgt id='1703'> +7.5876081e+01 </wgt>
<wgt id='1704'> +8.1390697e+01 </wgt>
<wgt id='1705'> +7.7488767e+01 </wgt>
<wgt id='1706'> +7.9744445e+01 </wgt>
<wgt id='1707'> +7.6599245e+01 </wgt>
<wgt id='1708'> +7.7797036e+01 </wgt>
<wgt id='1709'> +7.8124422e+01 </wgt>
<wgt id='1710'> +7.7075407e+01 </wgt>
<wgt id='1711'> +7.7635950e+01 </wgt>
<wgt id='1712'> +7.7575880e+01 </wgt>
<wgt id='1713'> +7.7621297e+01 </wgt>
<wgt id='1714'> +8.0980628e+01 </wgt>
<wgt id='1715'> +7.5947888e+01 </wgt>
<wgt id='1716'> +7.4401086e+01 </wgt>
<wgt id='1717'> +7.7322966e+01 </wgt>
<wgt id='1718'> +7.7709206e+01 </wgt>
<wgt id='1719'> +7.8162577e+01 </wgt>
<wgt id='1720'> +7.8222199e+01 </wgt>
<wgt id='1721'> +7.7576006e+01 </wgt>
<wgt id='1722'> +7.8417776e+01 </wgt>
<wgt id='1723'> +7.7751062e+01 </wgt>
<wgt id='1724'> +7.7156383e+01 </wgt>
<wgt id='1725'> +7.8907073e+01 </wgt>
<wgt id='1726'> +7.9532873e+01 </wgt>
<wgt id='1727'> +7.5880297e+01 </wgt>
<wgt id='1728'> +7.7453530e+01 </wgt>
<wgt id='1729'> +7.6907108e+01 </wgt>
<wgt id='1730'> +7.7853739e+01 </wgt>
<wgt id='1731'> +7.8677469e+01 </wgt>
<wgt id='1732'> +7.5235584e+01 </wgt>
<wgt id='1733'> +7.6905051e+01 </wgt>
<wgt id='1734'> +7.9076913e+01 </wgt>
<wgt id='1735'> +7.7499121e+01 </wgt>
<wgt id='1736'> +7.5209455e+01 </wgt>
<wgt id='1737'> +7.9445188e+01 </wgt>
<wgt id='1738'> +8.3908885e+01 </wgt>
<wgt id='1739'> +8.3960419e+01 </wgt>
<wgt id='1740'> +8.3857394e+01 </wgt>
<wgt id='1741'> +8.3791785e+01 </wgt>
<wgt id='1742'> +8.4025545e+01 </wgt>
<wgt id='1743'> +8.4107832e+01 </wgt>
<wgt id='1744'> +8.3710590e+01 </wgt>
<wgt id='1745'> +8.3839748e+01 </wgt>
<wgt id='1746'> +8.3975960e+01 </wgt>
<wgt id='1747'> +8.4173757e+01 </wgt>
<wgt id='1748'> +8.3645235e+01 </wgt>
<wgt id='1749'> +8.3771545e+01 </wgt>
<wgt id='1750'> +8.4094988e+01 </wgt>
<wgt id='1751'> +8.3840258e+01 </wgt>
<wgt id='1752'> +8.3979459e+01 </wgt>
<wgt id='1753'> +8.3862695e+01 </wgt>
<wgt id='1754'> +8.3804157e+01 </wgt>
<wgt id='1755'> +8.3946028e+01 </wgt>
<wgt id='1756'> +8.3982081e+01 </wgt>
<wgt id='1757'> +8.4005160e+01 </wgt>
<wgt id='1758'> +8.3751946e+01 </wgt>
<wgt id='1759'> +8.3068887e+01 </wgt>
<wgt id='1760'> +8.4735699e+01 </wgt>
<wgt id='1761'> +8.5426112e+01 </wgt>
<wgt id='1762'> +8.2306090e+01 </wgt>
<wgt id='1763'> +8.3948636e+01 </wgt>
<wgt id='1764'> +8.3938037e+01 </wgt>
<wgt id='1765'> +8.4459340e+01 </wgt>
<wgt id='1766'> +8.3434806e+01 </wgt>
<wgt id='1767'> +8.3908885e+01 </wgt>
<wgt id='1768'> +7.3807143e+01 </wgt>
<wgt id='1769'> +9.4701679e+01 </wgt>
<wgt id='1770'> +5.8320769e+01 </wgt>
<wgt id='1771'> +6.7605456e+01 </wgt>
<wgt id='1772'> +8.3535192e+01 </wgt>
<wgt id='1773'> +8.4158876e+01 </wgt>
<wgt id='1774'> +8.3893661e+01 </wgt>
<wgt id='1775'> +8.3853838e+01 </wgt>
<wgt id='1776'> +8.3801397e+01 </wgt>
<wgt id='1777'> +8.3888987e+01 </wgt>
<wgt id='1778'> +8.3853585e+01 </wgt>
<wgt id='1779'> +8.3782772e+01 </wgt>
<wgt id='1780'> +8.0867926e+01 </wgt>
<wgt id='1781'> +7.9364248e+01 </wgt>
<wgt id='1782'> +7.9374432e+01 </wgt>
<wgt id='1783'> +7.9311802e+01 </wgt>
<wgt id='1784'> +7.9183704e+01 </wgt>
<wgt id='1785'> +7.9502721e+01 </wgt>
<wgt id='1786'> +7.9461016e+01 </wgt>
<wgt id='1787'> +7.9225360e+01 </wgt>
<wgt id='1788'> +7.9280228e+01 </wgt>
<wgt id='1789'> +7.9405827e+01 </wgt>
<wgt id='1790'> +7.9342567e+01 </wgt>
<wgt id='1791'> +7.9350337e+01 </wgt>
<wgt id='1792'> +7.9574035e+01 </wgt>
<wgt id='1793'> +7.9115218e+01 </wgt>
<wgt id='1794'> +7.9212850e+01 </wgt>
<wgt id='1795'> +7.9466647e+01 </wgt>
<wgt id='1796'> +7.9232981e+01 </wgt>
<wgt id='1797'> +7.9254937e+01 </wgt>
<wgt id='1798'> +7.9438658e+01 </wgt>
<wgt id='1799'> +7.9245556e+01 </wgt>
<wgt id='1800'> +7.9127826e+01 </wgt>
<wgt id='1801'> +7.9567046e+01 </wgt>
<wgt id='1802'> +7.9889085e+01 </wgt>
<wgt id='1803'> +7.8753034e+01 </wgt>
<wgt id='1804'> +8.0744989e+01 </wgt>
<wgt id='1805'> +7.8042750e+01 </wgt>
<wgt id='1806'> +8.1965241e+01 </wgt>
<wgt id='1807'> +7.7001831e+01 </wgt>
<wgt id='1808'> +8.1358534e+01 </wgt>
<wgt id='1809'> +7.7584965e+01 </wgt>
<wgt id='1810'> +7.9352002e+01 </wgt>
<wgt id='1811'> +7.1050677e+01 </wgt>
<wgt id='1812'> +8.8300157e+01 </wgt>
<wgt id='1813'> +5.7962948e+01 </wgt>
<wgt id='1814'> +6.5963532e+01 </wgt>
<wgt id='1815'> +8.2792543e+01 </wgt>
<wgt id='1816'> +7.9541495e+01 </wgt>
<wgt id='1817'> +7.9219698e+01 </wgt>
<wgt id='1818'> +7.8726281e+01 </wgt>
<wgt id='1819'> +8.1430767e+01 </wgt>
<wgt id='1820'> +8.3160482e+01 </wgt>
<wgt id='1821'> +8.2145686e+01 </wgt>
<wgt id='1822'> +7.6382654e+01 </wgt>
<wgt id='1823'> +7.8884953e+01 </wgt>
<wgt id='1824'> +7.4885779e+01 </wgt>
<wgt id='1825'> +7.4862179e+01 </wgt>
<wgt id='1826'> +7.4838696e+01 </wgt>
<wgt id='1827'> +7.4815563e+01 </wgt>
<wgt id='1828'> +7.4792142e+01 </wgt>
<wgt id='1829'> +7.4768675e+01 </wgt>
<wgt id='1830'> +7.4745301e+01 </wgt>
<wgt id='1831'> +7.4721937e+01 </wgt>
<wgt id='1832'> +7.4698578e+01 </wgt>
<wgt id='1833'> +7.4674953e+01 </wgt>
<wgt id='1834'> +7.4651696e+01 </wgt>
<wgt id='1835'> +7.4628491e+01 </wgt>
<wgt id='1836'> +7.4605030e+01 </wgt>
<wgt id='1837'> +7.4581640e+01 </wgt>
<wgt id='1838'> +7.4558143e+01 </wgt>
<wgt id='1839'> +7.4534918e+01 </wgt>
<wgt id='1840'> +7.4511457e+01 </wgt>
<wgt id='1841'> +7.4488204e+01 </wgt>
<wgt id='1842'> +7.4464973e+01 </wgt>
<wgt id='1843'> +7.4441608e+01 </wgt>
<wgt id='1844'> +7.4418113e+01 </wgt>
<wgt id='1845'> +7.4394825e+01 </wgt>
<wgt id='1846'> +7.4371466e+01 </wgt>
<wgt id='1847'> +7.4348221e+01 </wgt>
<wgt id='1848'> +7.4324856e+01 </wgt>
<wgt id='1849'> +7.4301637e+01 </wgt>
<wgt id='1850'> +7.4277965e+01 </wgt>
<wgt id='1851'> +7.4254673e+01 </wgt>
<wgt id='1852'> +7.4231443e+01 </wgt>
<wgt id='1853'> +7.4207956e+01 </wgt>
<wgt id='1854'> +7.4184727e+01 </wgt>
<wgt id='1855'> +7.6794668e+01 </wgt>
<wgt id='1856'> +7.7797140e+01 </wgt>
<wgt id='1857'> +7.6740297e+01 </wgt>
<wgt id='1858'> +7.7108972e+01 </wgt>
<wgt id='1859'> +7.6015618e+01 </wgt>
<wgt id='1860'> +7.5952999e+01 </wgt>
<wgt id='1861'> +7.5697210e+01 </wgt>
<wgt id='1862'> +7.4827968e+01 </wgt>
<wgt id='1863'> +7.6636905e+01 </wgt>
<wgt id='1864'> +7.7233351e+01 </wgt>
<wgt id='1865'> +7.7834465e+01 </wgt>
<wgt id='1866'> +7.4726709e+01 </wgt>
<wgt id='1867'> +7.6752206e+01 </wgt>
<wgt id='1868'> +7.6796765e+01 </wgt>
<wgt id='1869'> +7.6090123e+01 </wgt>
<wgt id='1870'> +7.6821233e+01 </wgt>
<wgt id='1871'> +7.6045891e+01 </wgt>
<wgt id='1872'> +7.9336206e+01 </wgt>
<wgt id='1873'> +7.3599676e+01 </wgt>
<wgt id='1874'> +7.8482110e+01 </wgt>
<wgt id='1875'> +7.6634610e+01 </wgt>
<wgt id='1876'> +7.7461253e+01 </wgt>
<wgt id='1877'> +8.0018082e+01 </wgt>
<wgt id='1878'> +7.9618028e+01 </wgt>
<wgt id='1879'> +7.5492628e+01 </wgt>
<wgt id='1880'> +7.6467994e+01 </wgt>
<wgt id='1881'> +7.9204837e+01 </wgt>
<wgt id='1882'> +7.5459571e+01 </wgt>
<wgt id='1883'> +7.7195206e+01 </wgt>
<wgt id='1884'> +7.8309405e+01 </wgt>
<wgt id='1885'> +7.6722247e+01 </wgt>
<wgt id='1886'> +7.7547206e+01 </wgt>
<wgt id='1887'> +7.5291520e+01 </wgt>
<wgt id='1888'> +7.6896873e+01 </wgt>
<wgt id='1889'> +7.5894526e+01 </wgt>
<wgt id='1890'> +7.6491342e+01 </wgt>
<wgt id='1891'> +7.7045602e+01 </wgt>
<wgt id='1892'> +7.7174664e+01 </wgt>
<wgt id='1893'> +7.6259847e+01 </wgt>
<wgt id='1894'> +7.6434212e+01 </wgt>
<wgt id='1895'> +7.6755483e+01 </wgt>
<wgt id='1896'> +7.7386129e+01 </wgt>
<wgt id='1897'> +7.6833756e+01 </wgt>
<wgt id='1898'> +7.6569787e+01 </wgt>
<wgt id='1899'> +7.6941055e+01 </wgt>
<wgt id='1900'> +7.7117838e+01 </wgt>
<wgt id='1901'> +7.6076492e+01 </wgt>
<wgt id='1902'> +7.7128703e+01 </wgt>
<wgt id='1903'> +7.7120030e+01 </wgt>
<wgt id='1904'> +7.5858946e+01 </wgt>
<wgt id='1905'> +7.7299826e+01 </wgt>
<wgt id='1906'> +7.7317138e+01 </wgt>
<wgt id='1907'> +7.6827577e+01 </wgt>
<wgt id='1908'> +7.6684254e+01 </wgt>
<wgt id='1909'> +7.6382298e+01 </wgt>
<wgt id='1910'> +7.6684635e+01 </wgt>
<wgt id='1911'> +7.7489974e+01 </wgt>
<wgt id='1912'> +7.7114807e+01 </wgt>
<wgt id='1913'> +7.6561611e+01 </wgt>
<wgt id='1914'> +7.6766879e+01 </wgt>
<wgt id='1915'> +7.7041612e+01 </wgt>
<wgt id='1916'> +7.6889136e+01 </wgt>
<wgt id='1917'> +7.6687997e+01 </wgt>
<wgt id='1918'> +7.7068606e+01 </wgt>
<wgt id='1919'> +7.6574381e+01 </wgt>
<wgt id='1920'> +7.6854177e+01 </wgt>
<wgt id='1921'> +7.7025032e+01 </wgt>
<wgt id='1922'> +7.6870219e+01 </wgt>
<wgt id='1923'> +7.6825298e+01 </wgt>
<wgt id='1924'> +7.6564128e+01 </wgt>
<wgt id='1925'> +7.6719564e+01 </wgt>
<wgt id='1926'> +7.6846171e+01 </wgt>
<wgt id='1927'> +7.6696307e+01 </wgt>
<wgt id='1928'> +7.7063259e+01 </wgt>
<wgt id='1929'> +7.6631403e+01 </wgt>
<wgt id='1930'> +7.6737040e+01 </wgt>
<wgt id='1931'> +7.6838492e+01 </wgt>
<wgt id='1932'> +7.6642586e+01 </wgt>
<wgt id='1933'> +7.6857980e+01 </wgt>
<wgt id='1934'> +7.6601701e+01 </wgt>
<wgt id='1935'> +7.6827951e+01 </wgt>
<wgt id='1936'> +7.6772700e+01 </wgt>
<wgt id='1937'> +7.6702193e+01 </wgt>
<wgt id='1938'> +7.6694411e+01 </wgt>
<wgt id='1939'> +7.6616399e+01 </wgt>
<wgt id='1940'> +7.6618487e+01 </wgt>
<wgt id='1941'> +7.6752809e+01 </wgt>
<wgt id='1942'> +7.6583361e+01 </wgt>
<wgt id='1943'> +7.6830099e+01 </wgt>
<wgt id='1944'> +7.6718697e+01 </wgt>
<wgt id='1945'> +7.6729971e+01 </wgt>
<wgt id='1946'> +7.6750484e+01 </wgt>
<wgt id='1947'> +7.6746004e+01 </wgt>
<wgt id='1948'> +7.6817077e+01 </wgt>
<wgt id='1949'> +7.6767386e+01 </wgt>
<wgt id='1950'> +7.6781462e+01 </wgt>
<wgt id='1951'> +7.6659327e+01 </wgt>
<wgt id='1952'> +7.6834776e+01 </wgt>
<wgt id='1953'> +7.6676753e+01 </wgt>
<wgt id='1954'> +7.6859966e+01 </wgt>
<wgt id='1955'> +7.6744019e+01 </wgt>
<wgt id='1956'> +7.6794096e+01 </wgt>
<wgt id='1957'> +7.6797809e+01 </wgt>
<wgt id='1958'> +7.6795275e+01 </wgt>
<wgt id='1959'> +7.6795379e+01 </wgt>
<wgt id='1960'> +7.6796435e+01 </wgt>
<wgt id='1961'> +7.6794925e+01 </wgt>
<wgt id='1962'> +7.6798481e+01 </wgt>
</rwgt>
</event>
<event npLO=" -1 " npNLO=" 1 ">
 8      1 +1.5146096e+02 9.81320140e+00 7.54677110e-03 1.59573590e-01
       -1 -1    0    0    0  501 +0.0000000000e+00 +0.0000000000e+00 +1.4680551000e+01 1.4680551000e+01 0.0000000000e+00 0.0000e+00 9.0000e+00
        1 -1    0    0  503    0 +0.0000000000e+00 +0.0000000000e+00 -4.7515059000e+02 4.7515059000e+02 0.0000000000e+00 0.0000e+00 9.0000e+00
       23  2    1    2    0    0 +5.6383061000e-01 +1.2524083000e+01 -2.3316843000e+02 2.5152152000e+02 9.3479348000e+01 0.0000e+00 0.0000e+00
       11  1    3    3    0    0 +3.5756914000e+01 -5.7202340000e+00 -3.8483556000e+01 5.2841859000e+01 0.0000000000e+00 0.0000e+00 9.0000e+00
      -11  1    3    3    0    0 -3.5193083000e+01 +1.8244317000e+01 -1.9468487000e+02 1.9867966000e+02 0.0000000000e+00 0.0000e+00 9.0000e+00
       22  1    1    2    0    0 -1.9524101000e+00 +1.5832144000e+01 -4.1643463000e+01 4.4594245000e+01 0.0000000000e+00 0.0000e+00 9.0000e+00
       21  1    1    2  502  501 -4.3309354000e+00 -1.2803346000e+01 -8.9021388000e+00 1.6184275000e+01 0.0000000000e+00 0.0000e+00 9.0000e+00
       21  1    1    2  503  502 +5.7195149000e+00 -1.5552881000e+01 -1.7675601000e+02 1.7753110000e+02 0.0000000000e+00 0.0000e+00 9.0000e+00
#aMCatNLO 2  0  0  2  6 0.46763171E+01 0.00000000E+00 -9  7  0 0.00000000E+00 0.00000000E+00 0.00000000E+00 0.00000000E+00 0.00000000E+00
<rwgt>
<wgt id='1001'> +1.5146000e+02 </wgt>
<wgt id='1002'> +1.5146000e+02 </wgt>
<wgt id='1003'> +1.4783000e+02 </wgt>
<wgt id='1004'> +1.5402000e+02 </wgt>
<wgt id='1005'> +1.5558000e+02 </wgt>
<wgt id='1006'> +1.6018000e+02 </wgt>
<wgt id='1007'> +1.3434000e+02 </wgt>
<wgt id='1008'> +1.4437000e+02 </wgt>
<wgt id='1009'> +1.5695000e+02 </wgt>
<wgt id='1010'> +1.5263000e+02 </wgt>
<wgt id='1011'> +1.5151000e+02 </wgt>
<wgt id='1012'> +1.5031000e+02 </wgt>
<wgt id='1013'> +1.5105000e+02 </wgt>
<wgt id='1014'> +1.4566000e+02 </wgt>
<wgt id='1015'> +1.5937000e+02 </wgt>
<wgt id='1016'> +1.4964000e+02 </wgt>
<wgt id='1017'> +1.5238000e+02 </wgt>
<wgt id='1018'> +1.4359000e+02 </wgt>
<wgt id='1019'> +1.4570000e+02 </wgt>
<wgt id='1020'> +1.3777000e+02 </wgt>
<wgt id='1021'> +1.5486000e+02 </wgt>
<wgt id='1022'> +1.5286000e+02 </wgt>
<wgt id='1023'> +1.6349000e+02 </wgt>
<wgt id='1024'> +1.5765000e+02 </wgt>
<wgt id='1025'> +1.5501000e+02 </wgt>
<wgt id='1026'> +1.4927000e+02 </wgt>
<wgt id='1027'> +1.4970000e+02 </wgt>
<wgt id='1028'> +1.5540000e+02 </wgt>
<wgt id='1029'> +1.4743000e+02 </wgt>
<wgt id='1030'> +1.4707000e+02 </wgt>
<wgt id='1031'> +1.5203000e+02 </wgt>
<wgt id='1032'> +1.5218000e+02 </wgt>
<wgt id='1033'> +1.5721000e+02 </wgt>
<wgt id='1034'> +1.5053000e+02 </wgt>
<wgt id='1035'> +1.5732000e+02 </wgt>
<wgt id='1036'> +1.4615000e+02 </wgt>
<wgt id='1037'> +1.5594000e+02 </wgt>
<wgt id='1038'> +1.4701000e+02 </wgt>
<wgt id='1039'> +1.4827000e+02 </wgt>
<wgt id='1040'> +1.4768000e+02 </wgt>
<wgt id='1041'> +1.5216000e+02 </wgt>
<wgt id='1042'> +1.5355000e+02 </wgt>
<wgt id='1043'> +1.6150000e+02 </wgt>
<wgt id='1044'> +1.5359000e+02 </wgt>
<wgt id='1045'> +1.5263000e+02 </wgt>
<wgt id='1046'> +1.5133000e+02 </wgt>
<wgt id='1047'> +1.5628000e+02 </wgt>
<wgt id='1048'> +1.4894000e+02 </wgt>
<wgt id='1049'> +1.5120000e+02 </wgt>
<wgt id='1050'> +1.5041000e+02 </wgt>
<wgt id='1051'> +1.4630000e+02 </wgt>
<wgt id='1052'> +1.5678000e+02 </wgt>
<wgt id='1053'> +1.5686000e+02 </wgt>
<wgt id='1054'> +1.5246000e+02 </wgt>
<wgt id='1055'> +1.4229000e+02 </wgt>
<wgt id='1056'> +1.5654000e+02 </wgt>
<wgt id='1057'> +1.5336000e+02 </wgt>
<wgt id='1058'> +1.4630000e+02 </wgt>
<wgt id='1059'> +1.5424000e+02 </wgt>
<wgt id='1060'> +1.5575000e+02 </wgt>
<wgt id='1061'> +1.5135000e+02 </wgt>
<wgt id='1062'> +1.5733000e+02 </wgt>
<wgt id='1063'> +1.5374000e+02 </wgt>
<wgt id='1064'> +1.5202000e+02 </wgt>
<wgt id='1065'> +1.3625000e+02 </wgt>
<wgt id='1066'> +1.4417000e+02 </wgt>
<wgt id='1067'> +1.5267000e+02 </wgt>
<wgt id='1068'> +1.4993000e+02 </wgt>
<wgt id='1069'> +1.6617000e+02 </wgt>
<wgt id='1070'> +1.5678000e+02 </wgt>
<wgt id='1071'> +1.4868000e+02 </wgt>
<wgt id='1072'> +1.5117000e+02 </wgt>
<wgt id='1073'> +1.5209000e+02 </wgt>
<wgt id='1074'> +1.4132000e+02 </wgt>
<wgt id='1075'> +1.4463000e+02 </wgt>
<wgt id='1076'> +1.4802000e+02 </wgt>
<wgt id='1077'> +1.5302000e+02 </wgt>
<wgt id='1078'> +1.4006000e+02 </wgt>
<wgt id='1079'> +1.4773000e+02 </wgt>
<wgt id='1080'> +1.5577000e+02 </wgt>
<wgt id='1081'> +1.5130000e+02 </wgt>
<wgt id='1082'> +1.5724000e+02 </wgt>
<wgt id='1083'> +1.5619000e+02 </wgt>
<wgt id='1084'> +1.5540000e+02 </wgt>
<wgt id='1085'> +1.5051000e+02 </wgt>
<wgt id='1086'> +1.5186000e+02 </wgt>
<wgt id='1087'> +1.5289000e+02 </wgt>
<wgt id='1088'> +1.4970000e+02 </wgt>
<wgt id='1089'> +1.5644000e+02 </wgt>
<wgt id='1090'> +1.5835000e+02 </wgt>
<wgt id='1091'> +1.4473000e+02 </wgt>
<wgt id='1092'> +1.5273000e+02 </wgt>
<wgt id='1093'> +1.5875000e+02 </wgt>
<wgt id='1094'> +1.5015000e+02 </wgt>
<wgt id='1095'> +1.4936000e+02 </wgt>
<wgt id='1096'> +1.5265000e+02 </wgt>
<wgt id='1097'> +1.4569000e+02 </wgt>
<wgt id='1098'> +1.5092000e+02 </wgt>
<wgt id='1099'> +1.5081000e+02 </wgt>
<wgt id='1100'> +1.5422000e+02 </wgt>
<wgt id='1101'> +1.5612000e+02 </wgt>
<wgt id='1102'> +1.4542000e+02 </wgt>
<wgt id='1103'> +1.4854000e+02 </wgt>
<wgt id='1104'> +1.5622000e+02 </wgt>
<wgt id='1105'> +1.5146096e+02 </wgt>
<wgt id='1106'> +5.7996590e+01 </wgt>
<wgt id='1107'> +1.0325014e+02 </wgt>
<wgt id='1108'> +8.6272501e+01 </wgt>
<wgt id='1109'> +6.6069974e+01 </wgt>
<wgt id='1110'> +1.1762302e+02 </wgt>
<wgt id='1111'> +6.3566719e+01 </wgt>
<wgt id='1112'> +4.8681230e+01 </wgt>
<wgt id='1113'> +8.6666197e+01 </wgt>
<wgt id='1114'> +8.3683608e+01 </wgt>
<wgt id='1115'> +8.9082872e+01 </wgt>
<wgt id='1116'> +8.5633776e+01 </wgt>
<wgt id='1117'> +7.6177770e+01 </wgt>
<wgt id='1118'> +8.2496376e+01 </wgt>
<wgt id='1119'> +8.4156817e+01 </wgt>
<wgt id='1120'> +8.7650768e+01 </wgt>
<wgt id='1121'> +8.6234038e+01 </wgt>
<wgt id='1122'> +8.0133799e+01 </wgt>
<wgt id='1123'> +8.4533657e+01 </wgt>
<wgt id='1124'> +8.0242430e+01 </wgt>
<wgt id='1125'> +8.1386297e+01 </wgt>
<wgt id='1126'> +8.3152787e+01 </wgt>
<wgt id='1127'> +8.2663858e+01 </wgt>
<wgt id='1128'> +8.1125104e+01 </wgt>
<wgt id='1129'> +8.5164273e+01 </wgt>
<wgt id='1130'> +8.4040012e+01 </wgt>
<wgt id='1131'> +8.7540413e+01 </wgt>
<wgt id='1132'> +8.5335571e+01 </wgt>
<wgt id='1133'> +8.4175806e+01 </wgt>
<wgt id='1134'> +8.0705440e+01 </wgt>
<wgt id='1135'> +8.4171071e+01 </wgt>
<wgt id='1136'> +8.5320083e+01 </wgt>
<wgt id='1137'> +8.7141888e+01 </wgt>
<wgt id='1138'> +8.2995150e+01 </wgt>
<wgt id='1139'> +8.5007489e+01 </wgt>
<wgt id='1140'> +8.0887001e+01 </wgt>
<wgt id='1141'> +8.7562845e+01 </wgt>
<wgt id='1142'> +8.5912114e+01 </wgt>
<wgt id='1143'> +8.4251210e+01 </wgt>
<wgt id='1144'> +8.9099602e+01 </wgt>
<wgt id='1145'> +8.3332369e+01 </wgt>
<wgt id='1146'> +8.4724426e+01 </wgt>
<wgt id='1147'> +8.7588795e+01 </wgt>
<wgt id='1148'> +8.1380866e+01 </wgt>
<wgt id='1149'> +8.2099972e+01 </wgt>
<wgt id='1150'> +8.3945888e+01 </wgt>
<wgt id='1151'> +8.3281036e+01 </wgt>
<wgt id='1152'> +8.2960710e+01 </wgt>
<wgt id='1153'> +8.1560848e+01 </wgt>
<wgt id='1154'> +7.8673274e+01 </wgt>
<wgt id='1155'> +8.4192044e+01 </wgt>
<wgt id='1156'> +8.6583650e+01 </wgt>
<wgt id='1157'> +8.6228467e+01 </wgt>
<wgt id='1158'> +8.6115408e+01 </wgt>
<wgt id='1159'> +8.3487470e+01 </wgt>
<wgt id='1160'> +8.1864249e+01 </wgt>
<wgt id='1161'> +8.5439081e+01 </wgt>
<wgt id='1162'> +8.0494262e+01 </wgt>
<wgt id='1163'> +8.7786645e+01 </wgt>
<wgt id='1164'> +8.3118599e+01 </wgt>
<wgt id='1165'> +8.1952094e+01 </wgt>
<wgt id='1166'> +8.4743991e+01 </wgt>
<wgt id='1167'> +8.5450571e+01 </wgt>
<wgt id='1168'> +8.6946218e+01 </wgt>
<wgt id='1169'> +7.8762955e+01 </wgt>
<wgt id='1170'> +8.6120516e+01 </wgt>
<wgt id='1171'> +8.7408434e+01 </wgt>
<wgt id='1172'> +8.6763674e+01 </wgt>
<wgt id='1173'> +8.5150556e+01 </wgt>
<wgt id='1174'> +8.2821879e+01 </wgt>
<wgt id='1175'> +8.4125017e+01 </wgt>
<wgt id='1176'> +8.4068656e+01 </wgt>
<wgt id='1177'> +7.9787260e+01 </wgt>
<wgt id='1178'> +7.8041753e+01 </wgt>
<wgt id='1179'> +8.6421532e+01 </wgt>
<wgt id='1180'> +8.5994447e+01 </wgt>
<wgt id='1181'> +8.0493412e+01 </wgt>
<wgt id='1182'> +8.5590313e+01 </wgt>
<wgt id='1183'> +8.4353202e+01 </wgt>
<wgt id='1184'> +8.3662723e+01 </wgt>
<wgt id='1185'> +8.4369215e+01 </wgt>
<wgt id='1186'> +8.4254172e+01 </wgt>
<wgt id='1187'> +8.0615725e+01 </wgt>
<wgt id='1188'> +7.8778362e+01 </wgt>
<wgt id='1189'> +8.2731385e+01 </wgt>
<wgt id='1190'> +8.2558476e+01 </wgt>
<wgt id='1191'> +8.0757794e+01 </wgt>
<wgt id='1192'> +8.7443218e+01 </wgt>
<wgt id='1193'> +8.2804648e+01 </wgt>
<wgt id='1194'> +8.2303156e+01 </wgt>
<wgt id='1195'> +8.4173436e+01 </wgt>
<wgt id='1196'> +8.4040012e+01 </wgt>
<wgt id='1197'> +7.8568637e+01 </wgt>
<wgt id='1198'> +8.2860219e+01 </wgt>
<wgt id='1199'> +8.2084060e+01 </wgt>
<wgt id='1200'> +9.2003803e+01 </wgt>
<wgt id='1201'> +8.4709812e+01 </wgt>
<wgt id='1202'> +8.5324835e+01 </wgt>
<wgt id='1203'> +7.3364765e+01 </wgt>
<wgt id='1204'> +8.3409415e+01 </wgt>
<wgt id='1205'> +8.5630231e+01 </wgt>
<wgt id='1206'> +8.1006889e+01 </wgt>
<wgt id='1207'> +8.4228963e+01 </wgt>
<wgt id='1208'> +8.6325298e+01 </wgt>
<wgt id='1209'> +8.3652369e+01 </wgt>
<wgt id='1210'> +8.5757600e+01 </wgt>
<wgt id='1211'> +8.2321179e+01 </wgt>
<wgt id='1212'> +8.1618012e+01 </wgt>
<wgt id='1213'> +7.9681974e+01 </wgt>
<wgt id='1214'> +8.4563228e+01 </wgt>
<wgt id='1215'> +8.1302481e+01 </wgt>
<wgt id='1216'> +8.1164343e+01 </wgt>
<wgt id='1217'> +8.1131322e+01 </wgt>
<wgt id='1218'> +8.1387066e+01 </wgt>
<wgt id='1219'> +8.1075865e+01 </wgt>
<wgt id='1220'> +8.1614673e+01 </wgt>
<wgt id='1221'> +8.1386371e+01 </wgt>
<wgt id='1222'> +8.0735603e+01 </wgt>
<wgt id='1223'> +8.1690965e+01 </wgt>
<wgt id='1224'> +8.1850530e+01 </wgt>
<wgt id='1225'> +8.1723114e+01 </wgt>
<wgt id='1226'> +8.0823577e+01 </wgt>
<wgt id='1227'> +8.0785734e+01 </wgt>
<wgt id='1228'> +8.1160219e+01 </wgt>
<wgt id='1229'> +8.1834905e+01 </wgt>
<wgt id='1230'> +8.0981098e+01 </wgt>
<wgt id='1231'> +8.0942543e+01 </wgt>
<wgt id='1232'> +8.2049670e+01 </wgt>
<wgt id='1233'> +8.0823507e+01 </wgt>
<wgt id='1234'> +8.1449461e+01 </wgt>
<wgt id='1235'> +8.1301056e+01 </wgt>
<wgt id='1236'> +8.1035733e+01 </wgt>
<wgt id='1237'> +8.1524613e+01 </wgt>
<wgt id='1238'> +8.0936986e+01 </wgt>
<wgt id='1239'> +8.0463896e+01 </wgt>
<wgt id='1240'> +8.2058759e+01 </wgt>
<wgt id='1241'> +8.1069285e+01 </wgt>
<wgt id='1242'> +8.1448533e+01 </wgt>
<wgt id='1243'> +8.0752294e+01 </wgt>
<wgt id='1244'> +8.1464233e+01 </wgt>
<wgt id='1245'> +8.1850631e+01 </wgt>
<wgt id='1246'> +8.0003025e+01 </wgt>
<wgt id='1247'> +8.0885085e+01 </wgt>
<wgt id='1248'> +8.1519243e+01 </wgt>
<wgt id='1249'> +8.0989028e+01 </wgt>
<wgt id='1250'> +8.1129047e+01 </wgt>
<wgt id='1251'> +8.1524494e+01 </wgt>
<wgt id='1252'> +8.1212605e+01 </wgt>
<wgt id='1253'> +8.0906603e+01 </wgt>
<wgt id='1254'> +8.1297390e+01 </wgt>
<wgt id='1255'> +8.1233843e+01 </wgt>
<wgt id='1256'> +8.1016847e+01 </wgt>
<wgt id='1257'> +8.1493288e+01 </wgt>
<wgt id='1258'> +8.0801688e+01 </wgt>
<wgt id='1259'> +8.1123170e+01 </wgt>
<wgt id='1260'> +8.1194999e+01 </wgt>
<wgt id='1261'> +8.1069986e+01 </wgt>
<wgt id='1262'> +8.1450292e+01 </wgt>
<wgt id='1263'> +8.1447181e+01 </wgt>
<wgt id='1264'> +8.1159757e+01 </wgt>
<wgt id='1265'> +8.0945314e+01 </wgt>
<wgt id='1266'> +8.1257923e+01 </wgt>
<wgt id='1267'> +8.1232097e+01 </wgt>
<wgt id='1268'> +8.1016676e+01 </wgt>
<wgt id='1269'> +8.0905127e+01 </wgt>
<wgt id='1270'> +8.1006447e+01 </wgt>
<wgt id='1271'> +8.1236376e+01 </wgt>
<wgt id='1272'> +8.0842155e+01 </wgt>
<wgt id='1273'> +8.1219973e+01 </wgt>
<wgt id='1274'> +8.1063101e+01 </wgt>
<wgt id='1275'> +8.1357616e+01 </wgt>
<wgt id='1276'> +8.1108138e+01 </wgt>
<wgt id='1277'> +8.1176672e+01 </wgt>
<wgt id='1278'> +8.1106639e+01 </wgt>
<wgt id='1279'> +8.1185488e+01 </wgt>
<wgt id='1280'> +8.1030522e+01 </wgt>
<wgt id='1281'> +8.1165257e+01 </wgt>
<wgt id='1282'> +8.1326069e+01 </wgt>
<wgt id='1283'> +8.1113734e+01 </wgt>
<wgt id='1284'> +8.1211510e+01 </wgt>
<wgt id='1285'> +8.1243720e+01 </wgt>
<wgt id='1286'> +8.1022269e+01 </wgt>
<wgt id='1287'> +8.1092238e+01 </wgt>
<wgt id='1288'> +8.1144702e+01 </wgt>
<wgt id='1289'> +8.1146120e+01 </wgt>
<wgt id='1290'> +8.1175239e+01 </wgt>
<wgt id='1291'> +8.1177583e+01 </wgt>
<wgt id='1292'> +8.1226121e+01 </wgt>
<wgt id='1293'> +8.1102882e+01 </wgt>
<wgt id='1294'> +8.1194676e+01 </wgt>
<wgt id='1295'> +8.1141431e+01 </wgt>
<wgt id='1296'> +8.1224906e+01 </wgt>
<wgt id='1297'> +8.1018119e+01 </wgt>
<wgt id='1298'> +8.1106611e+01 </wgt>
<wgt id='1299'> +8.1107121e+01 </wgt>
<wgt id='1300'> +8.1282734e+01 </wgt>
<wgt id='1301'> +8.1076584e+01 </wgt>
<wgt id='1302'> +8.1157437e+01 </wgt>
<wgt id='1303'> +8.1124025e+01 </wgt>
<wgt id='1304'> +8.1099984e+01 </wgt>
<wgt id='1305'> +8.1125677e+01 </wgt>
<wgt id='1306'> +8.1249452e+01 </wgt>
<wgt id='1307'> +8.1236759e+01 </wgt>
<wgt id='1308'> +8.1130314e+01 </wgt>
<wgt id='1309'> +8.1211089e+01 </wgt>
<wgt id='1310'> +8.1132514e+01 </wgt>
<wgt id='1311'> +8.1143222e+01 </wgt>
<wgt id='1312'> +8.1164062e+01 </wgt>
<wgt id='1313'> +8.1033398e+01 </wgt>
<wgt id='1314'> +8.1209739e+01 </wgt>
<wgt id='1315'> +8.1209402e+01 </wgt>
<wgt id='1316'> +8.1276404e+01 </wgt>
<wgt id='1317'> +7.7236061e+01 </wgt>
<wgt id='1318'> +8.5241836e+01 </wgt>
<wgt id='1319'> +8.6677901e+01 </wgt>
<wgt id='1320'> +7.5320498e+01 </wgt>
<wgt id='1321'> +7.8340496e+01 </wgt>
<wgt id='1322'> +7.3380580e+01 </wgt>
<wgt id='1323'> +7.6171836e+01 </wgt>
<wgt id='1324'> +7.5850288e+01 </wgt>
<wgt id='1325'> +7.7750146e+01 </wgt>
<wgt id='1326'> +7.4161604e+01 </wgt>
<wgt id='1327'> +7.7157994e+01 </wgt>
<wgt id='1328'> +7.4554555e+01 </wgt>
<wgt id='1329'> +7.5832355e+01 </wgt>
<wgt id='1330'> +7.3738143e+01 </wgt>
<wgt id='1331'> +7.3653098e+01 </wgt>
<wgt id='1332'> +7.6971768e+01 </wgt>
<wgt id='1333'> +7.3086573e+01 </wgt>
<wgt id='1334'> +7.6095572e+01 </wgt>
<wgt id='1335'> +7.6520766e+01 </wgt>
<wgt id='1336'> +7.3240746e+01 </wgt>
<wgt id='1337'> +7.8513549e+01 </wgt>
<wgt id='1338'> +7.1782612e+01 </wgt>
<wgt id='1339'> +7.5630938e+01 </wgt>
<wgt id='1340'> +7.4970600e+01 </wgt>
<wgt id='1341'> +7.5484961e+01 </wgt>
<wgt id='1342'> +7.4981111e+01 </wgt>
<wgt id='1343'> +7.7113671e+01 </wgt>
<wgt id='1344'> +7.3770637e+01 </wgt>
<wgt id='1345'> +7.6497737e+01 </wgt>
<wgt id='1346'> +7.4456027e+01 </wgt>
<wgt id='1347'> +7.5389030e+01 </wgt>
<wgt id='1348'> +7.5295225e+01 </wgt>
<wgt id='1349'> +7.4362402e+01 </wgt>
<wgt id='1350'> +7.5638619e+01 </wgt>
<wgt id='1351'> +7.5053534e+01 </wgt>
<wgt id='1352'> +7.5651182e+01 </wgt>
<wgt id='1353'> +7.4235689e+01 </wgt>
<wgt id='1354'> +7.7691056e+01 </wgt>
<wgt id='1355'> +7.8478855e+01 </wgt>
<wgt id='1356'> +7.2465915e+01 </wgt>
<wgt id='1357'> +7.5411245e+01 </wgt>
<wgt id='1358'> +7.4670792e+01 </wgt>
<wgt id='1359'> +7.4498015e+01 </wgt>
<wgt id='1360'> +7.5291182e+01 </wgt>
<wgt id='1361'> +7.5640631e+01 </wgt>
<wgt id='1362'> +7.5910127e+01 </wgt>
<wgt id='1363'> +7.4585159e+01 </wgt>
<wgt id='1364'> +7.5388467e+01 </wgt>
<wgt id='1365'> +7.5603112e+01 </wgt>
<wgt id='1366'> +7.4719126e+01 </wgt>
<wgt id='1367'> +7.3860900e+01 </wgt>
<wgt id='1368'> +7.6687037e+01 </wgt>
<wgt id='1369'> +7.4698799e+01 </wgt>
<wgt id='1370'> +7.6670280e+01 </wgt>
<wgt id='1371'> +7.4405495e+01 </wgt>
<wgt id='1372'> +7.3921837e+01 </wgt>
<wgt id='1373'> +7.4237315e+01 </wgt>
<wgt id='1374'> +7.4457446e+01 </wgt>
<wgt id='1375'> +7.4783614e+01 </wgt>
<wgt id='1376'> +7.6147592e+01 </wgt>
<wgt id='1377'> +7.1103828e+01 </wgt>
<wgt id='1378'> +7.9599009e+01 </wgt>
<wgt id='1379'> +8.0145296e+01 </wgt>
<wgt id='1380'> +7.5408053e+01 </wgt>
<wgt id='1381'> +8.5169541e+01 </wgt>
<wgt id='1382'> +6.4767915e+01 </wgt>
<wgt id='1383'> +7.3370752e+01 </wgt>
<wgt id='1384'> +8.2273541e+01 </wgt>
<wgt id='1385'> +8.9528290e+01 </wgt>
<wgt id='1386'> +8.9551217e+01 </wgt>
<wgt id='1387'> +8.9502512e+01 </wgt>
<wgt id='1388'> +8.9218970e+01 </wgt>
<wgt id='1389'> +9.0049175e+01 </wgt>
<wgt id='1390'> +9.0004228e+01 </wgt>
<wgt id='1391'> +8.8965433e+01 </wgt>
<wgt id='1392'> +8.9344914e+01 </wgt>
<wgt id='1393'> +8.9663262e+01 </wgt>
<wgt id='1394'> +8.9031738e+01 </wgt>
<wgt id='1395'> +9.0147221e+01 </wgt>
<wgt id='1396'> +9.0211773e+01 </wgt>
<wgt id='1397'> +8.9170359e+01 </wgt>
<wgt id='1398'> +8.7889915e+01 </wgt>
<wgt id='1399'> +9.0750174e+01 </wgt>
<wgt id='1400'> +8.9335765e+01 </wgt>
<wgt id='1401'> +8.9665550e+01 </wgt>
<wgt id='1402'> +8.9642826e+01 </wgt>
<wgt id='1403'> +8.9474229e+01 </wgt>
<wgt id='1404'> +8.6541063e+01 </wgt>
<wgt id='1405'> +9.1063269e+01 </wgt>
<wgt id='1406'> +8.9064099e+01 </wgt>
<wgt id='1407'> +9.0344867e+01 </wgt>
<wgt id='1408'> +8.8839684e+01 </wgt>
<wgt id='1409'> +9.0925217e+01 </wgt>
<wgt id='1410'> +8.9683112e+01 </wgt>
<wgt id='1411'> +8.9207333e+01 </wgt>
<wgt id='1412'> +9.0134303e+01 </wgt>
<wgt id='1413'> +8.8502073e+01 </wgt>
<wgt id='1414'> +8.9100197e+01 </wgt>
<wgt id='1415'> +8.9890998e+01 </wgt>
<wgt id='1416'> +8.8547485e+01 </wgt>
<wgt id='1417'> +9.0008678e+01 </wgt>
<wgt id='1418'> +8.9046724e+01 </wgt>
<wgt id='1419'> +9.0444111e+01 </wgt>
<wgt id='1420'> +9.0245702e+01 </wgt>
<wgt id='1421'> +8.9655639e+01 </wgt>
<wgt id='1422'> +9.0374467e+01 </wgt>
<wgt id='1423'> +8.8557540e+01 </wgt>
<wgt id='1424'> +8.9675903e+01 </wgt>
<wgt id='1425'> +8.9231584e+01 </wgt>
<wgt id='1426'> +9.0693986e+01 </wgt>
<wgt id='1427'> +8.9658473e+01 </wgt>
<wgt id='1428'> +8.9365567e+01 </wgt>
<wgt id='1429'> +8.8453117e+01 </wgt>
<wgt id='1430'> +9.0224917e+01 </wgt>
<wgt id='1431'> +9.0439263e+01 </wgt>
<wgt id='1432'> +9.0279234e+01 </wgt>
<wgt id='1433'> +9.0653483e+01 </wgt>
<wgt id='1434'> +8.9669625e+01 </wgt>
<wgt id='1435'> +8.8706582e+01 </wgt>
<wgt id='1436'> +5.6501448e+01 </wgt>
<wgt id='1437'> +5.6493920e+01 </wgt>
<wgt id='1438'> +5.6593934e+01 </wgt>
<wgt id='1439'> +5.6507877e+01 </wgt>
<wgt id='1440'> +5.6219001e+01 </wgt>
<wgt id='1441'> +5.7005039e+01 </wgt>
<wgt id='1442'> +5.6199782e+01 </wgt>
<wgt id='1443'> +5.6419197e+01 </wgt>
<wgt id='1444'> +5.6521331e+01 </wgt>
<wgt id='1445'> +5.5489619e+01 </wgt>
<wgt id='1446'> +5.7187447e+01 </wgt>
<wgt id='1447'> +5.6305797e+01 </wgt>
<wgt id='1448'> +5.6300253e+01 </wgt>
<wgt id='1449'> +5.6605288e+01 </wgt>
<wgt id='1450'> +5.6533970e+01 </wgt>
<wgt id='1451'> +5.6848077e+01 </wgt>
<wgt id='1452'> +5.6331224e+01 </wgt>
<wgt id='1453'> +5.6800757e+01 </wgt>
<wgt id='1454'> +5.6716100e+01 </wgt>
<wgt id='1455'> +5.6692158e+01 </wgt>
<wgt id='1456'> +5.6580230e+01 </wgt>
<wgt id='1457'> +5.7218685e+01 </wgt>
<wgt id='1458'> +5.7142625e+01 </wgt>
<wgt id='1459'> +5.6093125e+01 </wgt>
<wgt id='1460'> +5.6304834e+01 </wgt>
<wgt id='1461'> +5.6594005e+01 </wgt>
<wgt id='1462'> +5.5343398e+01 </wgt>
<wgt id='1463'> +5.7564744e+01 </wgt>
<wgt id='1464'> +5.5816921e+01 </wgt>
<wgt id='1465'> +7.3501133e+01 </wgt>
<wgt id='1466'> +7.4774890e+01 </wgt>
<wgt id='1467'> +7.4553260e+01 </wgt>
<wgt id='1468'> +7.4425097e+01 </wgt>
<wgt id='1469'> +7.5412084e+01 </wgt>
<wgt id='1470'> +7.4570958e+01 </wgt>
<wgt id='1471'> +7.4894088e+01 </wgt>
<wgt id='1472'> +7.3972866e+01 </wgt>
<wgt id='1473'> +7.4736826e+01 </wgt>
<wgt id='1474'> +7.4807260e+01 </wgt>
<wgt id='1475'> +7.5488421e+01 </wgt>
<wgt id='1476'> +7.5146225e+01 </wgt>
<wgt id='1477'> +7.3403662e+01 </wgt>
<wgt id='1478'> +7.4239655e+01 </wgt>
<wgt id='1479'> +7.3821400e+01 </wgt>
<wgt id='1480'> +7.4416576e+01 </wgt>
<wgt id='1481'> +7.4318540e+01 </wgt>
<wgt id='1482'> +7.3933668e+01 </wgt>
<wgt id='1483'> +7.4798600e+01 </wgt>
<wgt id='1484'> +7.6364985e+01 </wgt>
<wgt id='1485'> +7.4303403e+01 </wgt>
<wgt id='1486'> +7.5263870e+01 </wgt>
<wgt id='1487'> +7.5527116e+01 </wgt>
<wgt id='1488'> +7.5399353e+01 </wgt>
<wgt id='1489'> +7.5367548e+01 </wgt>
<wgt id='1490'> +7.4362575e+01 </wgt>
<wgt id='1491'> +7.5498524e+01 </wgt>
<wgt id='1492'> +7.4721246e+01 </wgt>
<wgt id='1493'> +7.4756044e+01 </wgt>
<wgt id='1494'> +7.4692442e+01 </wgt>
<wgt id='1495'> +7.4584215e+01 </wgt>
<wgt id='1496'> +7.4368290e+01 </wgt>
<wgt id='1497'> +7.4667897e+01 </wgt>
<wgt id='1498'> +7.5232678e+01 </wgt>
<wgt id='1499'> +7.4625540e+01 </wgt>
<wgt id='1500'> +7.4422828e+01 </wgt>
<wgt id='1501'> +7.4965603e+01 </wgt>
<wgt id='1502'> +7.4665160e+01 </wgt>
<wgt id='1503'> +7.4753079e+01 </wgt>
<wgt id='1504'> +7.4572398e+01 </wgt>
<wgt id='1505'> +7.4464548e+01 </wgt>
<wgt id='1506'> +7.4869558e+01 </wgt>
<wgt id='1507'> +7.4517449e+01 </wgt>
<wgt id='1508'> +7.5042227e+01 </wgt>
<wgt id='1509'> +7.4781487e+01 </wgt>
<wgt id='1510'> +7.4773393e+01 </wgt>
<wgt id='1511'> +7.4859793e+01 </wgt>
<wgt id='1512'> +7.4666672e+01 </wgt>
<wgt id='1513'> +7.5101081e+01 </wgt>
<wgt id='1514'> +7.4732218e+01 </wgt>
<wgt id='1515'> +7.4854520e+01 </wgt>
<wgt id='1516'> +7.4893746e+01 </wgt>
<wgt id='1517'> +7.4576332e+01 </wgt>
<wgt id='1518'> +7.4799619e+01 </wgt>
<wgt id='1519'> +7.4713211e+01 </wgt>
<wgt id='1520'> +7.4521277e+01 </wgt>
<wgt id='1521'> +7.4795923e+01 </wgt>
<wgt id='1522'> +7.4687524e+01 </wgt>
<wgt id='1523'> +7.4609815e+01 </wgt>
<wgt id='1524'> +7.4963754e+01 </wgt>
<wgt id='1525'> +7.4909916e+01 </wgt>
<wgt id='1526'> +7.4652822e+01 </wgt>
<wgt id='1527'> +7.4789255e+01 </wgt>
<wgt id='1528'> +7.4775132e+01 </wgt>
<wgt id='1529'> +7.4851763e+01 </wgt>
<wgt id='1530'> +7.4823145e+01 </wgt>
<wgt id='1531'> +7.4893416e+01 </wgt>
<wgt id='1532'> +7.4716211e+01 </wgt>
<wgt id='1533'> +7.4863833e+01 </wgt>
<wgt id='1534'> +7.4766675e+01 </wgt>
<wgt id='1535'> +7.4822916e+01 </wgt>
<wgt id='1536'> +7.4726451e+01 </wgt>
<wgt id='1537'> +7.4782734e+01 </wgt>
<wgt id='1538'> +7.4824432e+01 </wgt>
<wgt id='1539'> +7.4711212e+01 </wgt>
<wgt id='1540'> +7.4703802e+01 </wgt>
<wgt id='1541'> +7.4850552e+01 </wgt>
<wgt id='1542'> +7.4802326e+01 </wgt>
<wgt id='1543'> +7.4753578e+01 </wgt>
<wgt id='1544'> +7.4748475e+01 </wgt>
<wgt id='1545'> +7.4845367e+01 </wgt>
<wgt id='1546'> +7.4777988e+01 </wgt>
<wgt id='1547'> +7.4771683e+01 </wgt>
<wgt id='1548'> +7.4706879e+01 </wgt>
<wgt id='1549'> +7.4819472e+01 </wgt>
<wgt id='1550'> +7.4778494e+01 </wgt>
<wgt id='1551'> +7.4720785e+01 </wgt>
<wgt id='1552'> +7.4799382e+01 </wgt>
<wgt id='1553'> +7.4735687e+01 </wgt>
<wgt id='1554'> +7.4797496e+01 </wgt>
<wgt id='1555'> +7.4809772e+01 </wgt>
<wgt id='1556'> +7.4769755e+01 </wgt>
<wgt id='1557'> +7.4772402e+01 </wgt>
<wgt id='1558'> +7.4763742e+01 </wgt>
<wgt id='1559'> +7.4775349e+01 </wgt>
<wgt id='1560'> +7.4762466e+01 </wgt>
<wgt id='1561'> +7.4740301e+01 </wgt>
<wgt id='1562'> +7.4775409e+01 </wgt>
<wgt id='1563'> +7.4791583e+01 </wgt>
<wgt id='1564'> +7.4772685e+01 </wgt>
<wgt id='1565'> +7.4767899e+01 </wgt>
<wgt id='1566'> +7.4788182e+01 </wgt>
<wgt id='1567'> +7.1683619e+01 </wgt>
<wgt id='1568'> +7.7898421e+01 </wgt>
<wgt id='1569'> +8.1311872e+01 </wgt>
<wgt id='1570'> +8.1451270e+01 </wgt>
<wgt id='1571'> +8.1352055e+01 </wgt>
<wgt id='1572'> +8.1158768e+01 </wgt>
<wgt id='1573'> +8.1491793e+01 </wgt>
<wgt id='1574'> +8.2191749e+01 </wgt>
<wgt id='1575'> +8.1721983e+01 </wgt>
<wgt id='1576'> +8.1333791e+01 </wgt>
<wgt id='1577'> +8.1107968e+01 </wgt>
<wgt id='1578'> +8.0745257e+01 </wgt>
<wgt id='1579'> +8.1312675e+01 </wgt>
<wgt id='1580'> +8.2395154e+01 </wgt>
<wgt id='1581'> +8.1772824e+01 </wgt>
<wgt id='1582'> +8.1709599e+01 </wgt>
<wgt id='1583'> +8.0631059e+01 </wgt>
<wgt id='1584'> +8.3960523e+01 </wgt>
<wgt id='1585'> +8.0889185e+01 </wgt>
<wgt id='1586'> +8.1340960e+01 </wgt>
<wgt id='1587'> +8.1461173e+01 </wgt>
<wgt id='1588'> +8.0453966e+01 </wgt>
<wgt id='1589'> +8.1366216e+01 </wgt>
<wgt id='1590'> +8.1419381e+01 </wgt>
<wgt id='1591'> +7.9996970e+01 </wgt>
<wgt id='1592'> +8.1639313e+01 </wgt>
<wgt id='1593'> +8.0789600e+01 </wgt>
<wgt id='1594'> +8.0814756e+01 </wgt>
<wgt id='1595'> +8.0865734e+01 </wgt>
<wgt id='1596'> +8.1526492e+01 </wgt>
<wgt id='1597'> +8.1412232e+01 </wgt>
<wgt id='1598'> +8.0738009e+01 </wgt>
<wgt id='1599'> +8.1194958e+01 </wgt>
<wgt id='1600'> +8.1269362e+01 </wgt>
<wgt id='1601'> +8.1608808e+01 </wgt>
<wgt id='1602'> +8.1656741e+01 </wgt>
<wgt id='1603'> +8.1346396e+01 </wgt>
<wgt id='1604'> +8.1547614e+01 </wgt>
<wgt id='1605'> +8.1038939e+01 </wgt>
<wgt id='1606'> +8.1715721e+01 </wgt>
<wgt id='1607'> +8.1847736e+01 </wgt>
<wgt id='1608'> +8.1074126e+01 </wgt>
<wgt id='1609'> +8.1395542e+01 </wgt>
<wgt id='1610'> +8.0863573e+01 </wgt>
<wgt id='1611'> +8.1196893e+01 </wgt>
<wgt id='1612'> +8.1524893e+01 </wgt>
<wgt id='1613'> +8.1571290e+01 </wgt>
<wgt id='1614'> +8.1188368e+01 </wgt>
<wgt id='1615'> +8.1431527e+01 </wgt>
<wgt id='1616'> +8.1085145e+01 </wgt>
<wgt id='1617'> +8.1116794e+01 </wgt>
<wgt id='1618'> +8.1207718e+01 </wgt>
<wgt id='1619'> +8.1270741e+01 </wgt>
<wgt id='1620'> +8.1321611e+01 </wgt>
<wgt id='1621'> +8.1332774e+01 </wgt>
<wgt id='1622'> +8.1160430e+01 </wgt>
<wgt id='1623'> +8.1302945e+01 </wgt>
<wgt id='1624'> +8.1118845e+01 </wgt>
<wgt id='1625'> +8.1599893e+01 </wgt>
<wgt id='1626'> +8.1387721e+01 </wgt>
<wgt id='1627'> +8.1338893e+01 </wgt>
<wgt id='1628'> +8.1368694e+01 </wgt>
<wgt id='1629'> +8.1281676e+01 </wgt>
<wgt id='1630'> +8.1434065e+01 </wgt>
<wgt id='1631'> +8.1276491e+01 </wgt>
<wgt id='1632'> +8.1405247e+01 </wgt>
<wgt id='1633'> +8.1226483e+01 </wgt>
<wgt id='1634'> +8.1153860e+01 </wgt>
<wgt id='1635'> +8.1284094e+01 </wgt>
<wgt id='1636'> +8.1350702e+01 </wgt>
<wgt id='1637'> +8.1426184e+01 </wgt>
<wgt id='1638'> +8.1233648e+01 </wgt>
<wgt id='1639'> +8.1272529e+01 </wgt>
<wgt id='1640'> +8.1417410e+01 </wgt>
<wgt id='1641'> +8.1224957e+01 </wgt>
<wgt id='1642'> +8.1305197e+01 </wgt>
<wgt id='1643'> +8.1270403e+01 </wgt>
<wgt id='1644'> +8.1335653e+01 </wgt>
<wgt id='1645'> +8.1330990e+01 </wgt>
<wgt id='1646'> +8.1303339e+01 </wgt>
<wgt id='1647'> +8.1337480e+01 </wgt>
<wgt id='1648'> +8.1312188e+01 </wgt>
<wgt id='1649'> +8.1363942e+01 </wgt>
<wgt id='1650'> +8.1249420e+01 </wgt>
<wgt id='1651'> +8.1337996e+01 </wgt>
<wgt id='1652'> +8.1294409e+01 </wgt>
<wgt id='1653'> +8.1275200e+01 </wgt>
<wgt id='1654'> +8.1323491e+01 </wgt>
<wgt id='1655'> +8.1337283e+01 </wgt>
<wgt id='1656'> +8.1248162e+01 </wgt>
<wgt id='1657'> +8.1307972e+01 </wgt>
<wgt id='1658'> +8.1298339e+01 </wgt>
<wgt id='1659'> +8.1364536e+01 </wgt>
<wgt id='1660'> +8.1270237e+01 </wgt>
<wgt id='1661'> +8.1243811e+01 </wgt>
<wgt id='1662'> +8.1312684e+01 </wgt>
<wgt id='1663'> +8.1311007e+01 </wgt>
<wgt id='1664'> +8.1315298e+01 </wgt>
<wgt id='1665'> +8.1349098e+01 </wgt>
<wgt id='1666'> +8.1315712e+01 </wgt>
<wgt id='1667'> +8.1323168e+01 </wgt>
<wgt id='1668'> +8.1288821e+01 </wgt>
<wgt id='1669'> +8.1309368e+01 </wgt>
<wgt id='1670'> +7.7498408e+01 </wgt>
<wgt id='1671'> +8.4797983e+01 </wgt>
<wgt id='1672'> +7.4845579e+01 </wgt>
<wgt id='1673'> +7.4820415e+01 </wgt>
<wgt id='1674'> +7.3243728e+01 </wgt>
<wgt id='1675'> +7.4838453e+01 </wgt>
<wgt id='1676'> +7.4895387e+01 </wgt>
<wgt id='1677'> +7.4918790e+01 </wgt>
<wgt id='1678'> +7.5969753e+01 </wgt>
<wgt id='1679'> +7.4921852e+01 </wgt>
<wgt id='1680'> +7.5037230e+01 </wgt>
<wgt id='1681'> +7.5590319e+01 </wgt>
<wgt id='1682'> +7.5026894e+01 </wgt>
<wgt id='1683'> +7.4289721e+01 </wgt>
<wgt id='1684'> +7.5110355e+01 </wgt>
<wgt id='1685'> +7.4875110e+01 </wgt>
<wgt id='1686'> +7.2635231e+01 </wgt>
<wgt id='1687'> +7.5121748e+01 </wgt>
<wgt id='1688'> +7.5033450e+01 </wgt>
<wgt id='1689'> +7.4505300e+01 </wgt>
<wgt id='1690'> +7.4715894e+01 </wgt>
<wgt id='1691'> +7.5089469e+01 </wgt>
<wgt id='1692'> +7.4952028e+01 </wgt>
<wgt id='1693'> +7.4871330e+01 </wgt>
<wgt id='1694'> +7.4619789e+01 </wgt>
<wgt id='1695'> +7.4954523e+01 </wgt>
<wgt id='1696'> +7.4626377e+01 </wgt>
<wgt id='1697'> +7.4994921e+01 </wgt>
<wgt id='1698'> +7.3646862e+01 </wgt>
<wgt id='1699'> +7.5014721e+01 </wgt>
<wgt id='1700'> +7.4750077e+01 </wgt>
<wgt id='1701'> +7.5118971e+01 </wgt>
<wgt id='1702'> +7.4827746e+01 </wgt>
<wgt id='1703'> +7.1683619e+01 </wgt>
<wgt id='1704'> +7.7898421e+01 </wgt>
<wgt id='1705'> +8.1321163e+01 </wgt>
<wgt id='1706'> +8.1744860e+01 </wgt>
<wgt id='1707'> +8.4705300e+01 </wgt>
<wgt id='1708'> +8.1263164e+01 </wgt>
<wgt id='1709'> +8.0924863e+01 </wgt>
<wgt id='1710'> +8.0950047e+01 </wgt>
<wgt id='1711'> +8.1363940e+01 </wgt>
<wgt id='1712'> +8.1361564e+01 </wgt>
<wgt id='1713'> +8.1389529e+01 </wgt>
<wgt id='1714'> +8.0998272e+01 </wgt>
<wgt id='1715'> +8.1263781e+01 </wgt>
<wgt id='1716'> +8.1749550e+01 </wgt>
<wgt id='1717'> +8.1369944e+01 </wgt>
<wgt id='1718'> +8.1158955e+01 </wgt>
<wgt id='1719'> +8.1228316e+01 </wgt>
<wgt id='1720'> +8.0759334e+01 </wgt>
<wgt id='1721'> +8.1181761e+01 </wgt>
<wgt id='1722'> +8.0954164e+01 </wgt>
<wgt id='1723'> +8.1399425e+01 </wgt>
<wgt id='1724'> +8.1811664e+01 </wgt>
<wgt id='1725'> +8.1107145e+01 </wgt>
<wgt id='1726'> +7.9927061e+01 </wgt>
<wgt id='1727'> +8.1328156e+01 </wgt>
<wgt id='1728'> +8.1304370e+01 </wgt>
<wgt id='1729'> +8.1218901e+01 </wgt>
<wgt id='1730'> +8.1372260e+01 </wgt>
<wgt id='1731'> +8.1409631e+01 </wgt>
<wgt id='1732'> +8.1345830e+01 </wgt>
<wgt id='1733'> +8.1242581e+01 </wgt>
<wgt id='1734'> +8.1246878e+01 </wgt>
<wgt id='1735'> +8.1434926e+01 </wgt>
<wgt id='1736'> +7.7498408e+01 </wgt>
<wgt id='1737'> +8.4797983e+01 </wgt>
<wgt id='1738'> +7.8375123e+01 </wgt>
<wgt id='1739'> +7.8578763e+01 </wgt>
<wgt id='1740'> +7.8172876e+01 </wgt>
<wgt id='1741'> +7.8312788e+01 </wgt>
<wgt id='1742'> +7.8437247e+01 </wgt>
<wgt id='1743'> +7.8442923e+01 </wgt>
<wgt id='1744'> +7.8307165e+01 </wgt>
<wgt id='1745'> +7.8025017e+01 </wgt>
<wgt id='1746'> +7.8713574e+01 </wgt>
<wgt id='1747'> +7.8259205e+01 </wgt>
<wgt id='1748'> +7.8451238e+01 </wgt>
<wgt id='1749'> +7.8809394e+01 </wgt>
<wgt id='1750'> +7.7903204e+01 </wgt>
<wgt id='1751'> +7.8450836e+01 </wgt>
<wgt id='1752'> +7.8294988e+01 </wgt>
<wgt id='1753'> +7.8806572e+01 </wgt>
<wgt id='1754'> +7.8002961e+01 </wgt>
<wgt id='1755'> +7.8595140e+01 </wgt>
<wgt id='1756'> +7.8027275e+01 </wgt>
<wgt id='1757'> +7.6916172e+01 </wgt>
<wgt id='1758'> +7.9804256e+01 </wgt>
<wgt id='1759'> +7.6891703e+01 </wgt>
<wgt id='1760'> +7.9759515e+01 </wgt>
<wgt id='1761'> +7.7663132e+01 </wgt>
<wgt id='1762'> +7.8760333e+01 </wgt>
<wgt id='1763'> +7.9176987e+01 </wgt>
<wgt id='1764'> +7.7621889e+01 </wgt>
<wgt id='1765'> +7.8427534e+01 </wgt>
<wgt id='1766'> +7.8341751e+01 </wgt>
<wgt id='1767'> +7.8375123e+01 </wgt>
<wgt id='1768'> +8.1874595e+01 </wgt>
<wgt id='1769'> +7.4592591e+01 </wgt>
<wgt id='1770'> +8.7613986e+01 </wgt>
<wgt id='1771'> +8.4325960e+01 </wgt>
<wgt id='1772'> +7.9073356e+01 </wgt>
<wgt id='1773'> +7.8313605e+01 </wgt>
<wgt id='1774'> +7.8361094e+01 </wgt>
<wgt id='1775'> +7.8368518e+01 </wgt>
<wgt id='1776'> +7.7724090e+01 </wgt>
<wgt id='1777'> +7.8978003e+01 </wgt>
<wgt id='1778'> +7.7886866e+01 </wgt>
<wgt id='1779'> +7.9370079e+01 </wgt>
<wgt id='1780'> +7.7875997e+01 </wgt>
<wgt id='1781'> +8.5816360e+01 </wgt>
<wgt id='1782'> +8.6018573e+01 </wgt>
<wgt id='1783'> +8.5591500e+01 </wgt>
<wgt id='1784'> +8.5713148e+01 </wgt>
<wgt id='1785'> +8.5895806e+01 </wgt>
<wgt id='1786'> +8.5840867e+01 </wgt>
<wgt id='1787'> +8.5768115e+01 </wgt>
<wgt id='1788'> +8.5369953e+01 </wgt>
<wgt id='1789'> +8.6219809e+01 </wgt>
<wgt id='1790'> +8.6086697e+01 </wgt>
<wgt id='1791'> +8.5512902e+01 </wgt>
<wgt id='1792'> +8.5567450e+01 </wgt>
<wgt id='1793'> +8.6002808e+01 </wgt>
<wgt id='1794'> +8.5735901e+01 </wgt>
<wgt id='1795'> +8.5875487e+01 </wgt>
<wgt id='1796'> +8.5807103e+01 </wgt>
<wgt id='1797'> +8.5924937e+01 </wgt>
<wgt id='1798'> +8.5303151e+01 </wgt>
<wgt id='1799'> +8.6281354e+01 </wgt>
<wgt id='1800'> +8.4376492e+01 </wgt>
<wgt id='1801'> +8.7147868e+01 </wgt>
<wgt id='1802'> +8.6009446e+01 </wgt>
<wgt id='1803'> +8.5502414e+01 </wgt>
<wgt id='1804'> +8.6785003e+01 </wgt>
<wgt id='1805'> +8.4864352e+01 </wgt>
<wgt id='1806'> +8.6632667e+01 </wgt>
<wgt id='1807'> +8.5023718e+01 </wgt>
<wgt id='1808'> +8.6348281e+01 </wgt>
<wgt id='1809'> +8.5374399e+01 </wgt>
<wgt id='1810'> +8.5653831e+01 </wgt>
<wgt id='1811'> +8.9416311e+01 </wgt>
<wgt id='1812'> +8.0622900e+01 </wgt>
<wgt id='1813'> +9.4638701e+01 </wgt>
<wgt id='1814'> +9.0032319e+01 </wgt>
<wgt id='1815'> +8.9291572e+01 </wgt>
<wgt id='1816'> +8.3835508e+01 </wgt>
<wgt id='1817'> +8.5586345e+01 </wgt>
<wgt id='1818'> +8.5506244e+01 </wgt>
<wgt id='1819'> +8.4155523e+01 </wgt>
<wgt id='1820'> +8.9107559e+01 </wgt>
<wgt id='1821'> +8.4592340e+01 </wgt>
<wgt id='1822'> +8.5890734e+01 </wgt>
<wgt id='1823'> +8.2718730e+01 </wgt>
<wgt id='1824'> +7.4676629e+01 </wgt>
<wgt id='1825'> +7.4644523e+01 </wgt>
<wgt id='1826'> +7.4612346e+01 </wgt>
<wgt id='1827'> +7.4580058e+01 </wgt>
<wgt id='1828'> +7.4547973e+01 </wgt>
<wgt id='1829'> +7.4515801e+01 </wgt>
<wgt id='1830'> +7.4483747e+01 </wgt>
<wgt id='1831'> +7.4451485e+01 </wgt>
<wgt id='1832'> +7.4419346e+01 </wgt>
<wgt id='1833'> +7.4387298e+01 </wgt>
<wgt id='1834'> +7.4355254e+01 </wgt>
<wgt id='1835'> +7.4322933e+01 </wgt>
<wgt id='1836'> +7.4290895e+01 </wgt>
<wgt id='1837'> +7.4258702e+01 </wgt>
<wgt id='1838'> +7.4226484e+01 </wgt>
<wgt id='1839'> +7.4194483e+01 </wgt>
<wgt id='1840'> +7.4162390e+01 </wgt>
<wgt id='1841'> +7.4130405e+01 </wgt>
<wgt id='1842'> +7.4098214e+01 </wgt>
<wgt id='1843'> +7.4066137e+01 </wgt>
<wgt id='1844'> +7.4034181e+01 </wgt>
<wgt id='1845'> +7.4002013e+01 </wgt>
<wgt id='1846'> +7.3969960e+01 </wgt>
<wgt id='1847'> +7.3938009e+01 </wgt>
<wgt id='1848'> +7.3906076e+01 </wgt>
<wgt id='1849'> +7.3873846e+01 </wgt>
<wgt id='1850'> +7.3841905e+01 </wgt>
<wgt id='1851'> +7.3809891e+01 </wgt>
<wgt id='1852'> +7.3777992e+01 </wgt>
<wgt id='1853'> +7.3745810e+01 </wgt>
<wgt id='1854'> +7.3713774e+01 </wgt>
<wgt id='1855'> +8.1238392e+01 </wgt>
<wgt id='1856'> +8.1372986e+01 </wgt>
<wgt id='1857'> +8.1276351e+01 </wgt>
<wgt id='1858'> +8.1087030e+01 </wgt>
<wgt id='1859'> +8.1417232e+01 </wgt>
<wgt id='1860'> +8.2116544e+01 </wgt>
<wgt id='1861'> +8.1652239e+01 </wgt>
<wgt id='1862'> +8.1263122e+01 </wgt>
<wgt id='1863'> +8.1034572e+01 </wgt>
<wgt id='1864'> +8.0672504e+01 </wgt>
<wgt id='1865'> +8.1238642e+01 </wgt>
<wgt id='1866'> +8.2325612e+01 </wgt>
<wgt id='1867'> +8.1702466e+01 </wgt>
<wgt id='1868'> +8.1638875e+01 </wgt>
<wgt id='1869'> +8.0556548e+01 </wgt>
<wgt id='1870'> +8.3878098e+01 </wgt>
<wgt id='1871'> +8.0821383e+01 </wgt>
<wgt id='1872'> +8.1265098e+01 </wgt>
<wgt id='1873'> +8.1386021e+01 </wgt>
<wgt id='1874'> +8.0383895e+01 </wgt>
<wgt id='1875'> +8.1295885e+01 </wgt>
<wgt id='1876'> +8.1343599e+01 </wgt>
<wgt id='1877'> +7.9923029e+01 </wgt>
<wgt id='1878'> +8.1566626e+01 </wgt>
<wgt id='1879'> +8.0713838e+01 </wgt>
<wgt id='1880'> +8.0737454e+01 </wgt>
<wgt id='1881'> +8.0788743e+01 </wgt>
<wgt id='1882'> +8.1456813e+01 </wgt>
<wgt id='1883'> +8.1340733e+01 </wgt>
<wgt id='1884'> +8.0662797e+01 </wgt>
<wgt id='1885'> +8.1119368e+01 </wgt>
<wgt id='1886'> +8.1200127e+01 </wgt>
<wgt id='1887'> +8.1533113e+01 </wgt>
<wgt id='1888'> +8.1582305e+01 </wgt>
<wgt id='1889'> +8.1272838e+01 </wgt>
<wgt id='1890'> +8.1473005e+01 </wgt>
<wgt id='1891'> +8.0966533e+01 </wgt>
<wgt id='1892'> +8.1643140e+01 </wgt>
<wgt id='1893'> +8.1774201e+01 </wgt>
<wgt id='1894'> +8.0999394e+01 </wgt>
<wgt id='1895'> +8.1323180e+01 </wgt>
<wgt id='1896'> +8.0788909e+01 </wgt>
<wgt id='1897'> +8.1123272e+01 </wgt>
<wgt id='1898'> +8.1453385e+01 </wgt>
<wgt id='1899'> +8.1497798e+01 </wgt>
<wgt id='1900'> +8.1114174e+01 </wgt>
<wgt id='1901'> +8.1360038e+01 </wgt>
<wgt id='1902'> +8.1009758e+01 </wgt>
<wgt id='1903'> +8.1044089e+01 </wgt>
<wgt id='1904'> +8.1134248e+01 </wgt>
<wgt id='1905'> +8.1197240e+01 </wgt>
<wgt id='1906'> +8.1247466e+01 </wgt>
<wgt id='1907'> +8.1259681e+01 </wgt>
<wgt id='1908'> +8.1086634e+01 </wgt>
<wgt id='1909'> +8.1229857e+01 </wgt>
<wgt id='1910'> +8.1045430e+01 </wgt>
<wgt id='1911'> +8.1525349e+01 </wgt>
<wgt id='1912'> +8.1313740e+01 </wgt>
<wgt id='1913'> +8.1266343e+01 </wgt>
<wgt id='1914'> +8.1296952e+01 </wgt>
<wgt id='1915'> +8.1209238e+01 </wgt>
<wgt id='1916'> +8.1361110e+01 </wgt>
<wgt id='1917'> +8.1202342e+01 </wgt>
<wgt id='1918'> +8.1331381e+01 </wgt>
<wgt id='1919'> +8.1152915e+01 </wgt>
<wgt id='1920'> +8.1079680e+01 </wgt>
<wgt id='1921'> +8.1210419e+01 </wgt>
<wgt id='1922'> +8.1276428e+01 </wgt>
<wgt id='1923'> +8.1353317e+01 </wgt>
<wgt id='1924'> +8.1159679e+01 </wgt>
<wgt id='1925'> +8.1198020e+01 </wgt>
<wgt id='1926'> +8.1344097e+01 </wgt>
<wgt id='1927'> +8.1150565e+01 </wgt>
<wgt id='1928'> +8.1230862e+01 </wgt>
<wgt id='1929'> +8.1196883e+01 </wgt>
<wgt id='1930'> +8.1262433e+01 </wgt>
<wgt id='1931'> +8.1258212e+01 </wgt>
<wgt id='1932'> +8.1229976e+01 </wgt>
<wgt id='1933'> +8.1264779e+01 </wgt>
<wgt id='1934'> +8.1239065e+01 </wgt>
<wgt id='1935'> +8.1290103e+01 </wgt>
<wgt id='1936'> +8.1176664e+01 </wgt>
<wgt id='1937'> +8.1264303e+01 </wgt>
<wgt id='1938'> +8.1220456e+01 </wgt>
<wgt id='1939'> +8.1201567e+01 </wgt>
<wgt id='1940'> +8.1249775e+01 </wgt>
<wgt id='1941'> +8.1265130e+01 </wgt>
<wgt id='1942'> +8.1174047e+01 </wgt>
<wgt id='1943'> +8.1234543e+01 </wgt>
<wgt id='1944'> +8.1224290e+01 </wgt>
<wgt id='1945'> +8.1291438e+01 </wgt>
<wgt id='1946'> +8.1196356e+01 </wgt>
<wgt id='1947'> +8.1170185e+01 </wgt>
<wgt id='1948'> +8.1240156e+01 </wgt>
<wgt id='1949'> +8.1237557e+01 </wgt>
<wgt id='1950'> +8.1241532e+01 </wgt>
<wgt id='1951'> +8.1275738e+01 </wgt>
<wgt id='1952'> +8.1242836e+01 </wgt>
<wgt id='1953'> +8.1249694e+01 </wgt>
<wgt id='1954'> +8.1216014e+01 </wgt>
<wgt id='1955'> +8.1235811e+01 </wgt>
<wgt id='1956'> +8.1238321e+01 </wgt>
<wgt id='1957'> +8.1238771e+01 </wgt>
<wgt id='1958'> +8.1238465e+01 </wgt>
<wgt id='1959'> +8.1238477e+01 </wgt>
<wgt id='1960'> +8.1238604e+01 </wgt>
<wgt id='1961'> +8.1238422e+01 </wgt>
<wgt id='1962'> +8.1238845e+01 </wgt>
</rwgt>
</event>
<event npLO=" -1 " npNLO=" 1 ">
 7      1 -1.5146096e+02 1.16844640e+01 7.54677110e-03 1.31784520e-01
        2 -1    0    0  502    0 +0.0000000000e+00 +0.0000000000e+00 +5.3878827000e+02 5.3878827000e+02 0.0000000000e+00 0.0000e+00 9.0000e+00
       21 -1    0    0  501  502 +0.0000000000e+00 +0.0000000000e+00 -1.1816024000e+01 1.1816024000e+01 0.0000000000e+00 0.0000e+00 9.0000e+00
       23  2    1    2    0    0 -1.6069878000e+01 +1.7492726000e+01 +4.4232586000e+02 4.5154429000e+02 8.7611904000e+01 0.0000e+00 0.0000e+00
       13  1    3    3    0    0 -4.9999515000e+01 +2.7591164000e+00 +3.1494933000e+02 3.1890538000e+02 0.0000000000e+00 0.0000e+00 9.0000e+00
      -13  1    3    3    0    0 +3.3929637000e+01 +1.4733609000e+01 +1.2737653000e+02 1.3263891000e+02 0.0000000000e+00 0.0000e+00 9.0000e+00
       22  1    1    2    0    0 +1.2076787000e+01 -2.8473705000e+01 +8.1179873000e+01 8.6872161000e+01 0.0000000000e+00 0.0000e+00 9.0000e+00
        2  1    1    2  501    0 +3.9930906000e+00 +1.0980980000e+01 +3.4665120000e+00 1.2187838000e+01 0.0000000000e+00 0.0000e+00 9.0000e+00
#aMCatNLO 1  0  0  2  2 0.38069857E+02 0.00000000E+00 -9  7  0 0.00000000E+00 0.00000000E+00 0.00000000E+00 0.00000000E+00 0.00000000E+00
<rwgt>
<wgt id='1001'> -1.5146000e+02 </wgt>
<wgt id='1002'> -1.5146000e+02 </wgt>
<wgt id='1003'> -1.4596000e+02 </wgt>
<wgt id='1004'> -1.5213000e+02 </wgt>
<wgt id='1005'> -1.5224000e+02 </wgt>
<wgt id='1006'> -1.5280000e+02 </wgt>
<wgt id='1007'> -1.4353000e+02 </wgt>
<wgt id='1008'> -1.5185000e+02 </wgt>
<wgt id='1009'> -1.5151000e+02 </wgt>
<wgt id='1010'> -1.4754000e+02 </wgt>
<wgt id='1011'> -1.5071000e+02 </wgt>
<wgt id='1012'> -1.5144000e+02 </wgt>
<wgt id='1013'> -1.5220000e+02 </wgt>
<wgt id='1014'> -1.5255000e+02 </wgt>
<wgt id='1015'> -1.5373000e+02 </wgt>
<wgt id='1016'> -1.4987000e+02 </wgt>
<wgt id='1017'> -1.5080000e+02 </wgt>
<wgt id='1018'> -1.5084000e+02 </wgt>
<wgt id='1019'> -1.4881000e+02 </wgt>
<wgt id='1020'> -1.4660000e+02 </wgt>
<wgt id='1021'> -1.5128000e+02 </wgt>
<wgt id='1022'> -1.4791000e+02 </wgt>
<wgt id='1023'> -1.5409000e+02 </wgt>
<wgt id='1024'> -1.5056000e+02 </wgt>
<wgt id='1025'> -1.5912000e+02 </wgt>
<wgt id='1026'> -1.5073000e+02 </wgt>
<wgt id='1027'> -1.5231000e+02 </wgt>
<wgt id='1028'> -1.5034000e+02 </wgt>
<wgt id='1029'> -1.4697000e+02 </wgt>
<wgt id='1030'> -1.5126000e+02 </wgt>
<wgt id='1031'> -1.4777000e+02 </wgt>
<wgt id='1032'> -1.5165000e+02 </wgt>
<wgt id='1033'> -1.5039000e+02 </wgt>
<wgt id='1034'> -1.5223000e+02 </wgt>
<wgt id='1035'> -1.5266000e+02 </wgt>
<wgt id='1036'> -1.5476000e+02 </wgt>
<wgt id='1037'> -1.5256000e+02 </wgt>
<wgt id='1038'> -1.5333000e+02 </wgt>
<wgt id='1039'> -1.4874000e+02 </wgt>
<wgt id='1040'> -1.4925000e+02 </wgt>
<wgt id='1041'> -1.4946000e+02 </wgt>
<wgt id='1042'> -1.5283000e+02 </wgt>
<wgt id='1043'> -1.5392000e+02 </wgt>
<wgt id='1044'> -1.5468000e+02 </wgt>
<wgt id='1045'> -1.5339000e+02 </wgt>
<wgt id='1046'> -1.5086000e+02 </wgt>
<wgt id='1047'> -1.5438000e+02 </wgt>
<wgt id='1048'> -1.5324000e+02 </wgt>
<wgt id='1049'> -1.4966000e+02 </wgt>
<wgt id='1050'> -1.5028000e+02 </wgt>
<wgt id='1051'> -1.5107000e+02 </wgt>
<wgt id='1052'> -1.5271000e+02 </wgt>
<wgt id='1053'> -1.5214000e+02 </wgt>
<wgt id='1054'> -1.5135000e+02 </wgt>
<wgt id='1055'> -1.5525000e+02 </wgt>
<wgt id='1056'> -1.5321000e+02 </wgt>
<wgt id='1057'> -1.5296000e+02 </wgt>
<wgt id='1058'> -1.4930000e+02 </wgt>
<wgt id='1059'> -1.5552000e+02 </wgt>
<wgt id='1060'> -1.5254000e+02 </wgt>
<wgt id='1061'> -1.5048000e+02 </wgt>
<wgt id='1062'> -1.5157000e+02 </wgt>
<wgt id='1063'> -1.5171000e+02 </wgt>
<wgt id='1064'> -1.5044000e+02 </wgt>
<wgt id='1065'> -1.5644000e+02 </wgt>
<wgt id='1066'> -1.4524000e+02 </wgt>
<wgt id='1067'> -1.5399000e+02 </wgt>
<wgt id='1068'> -1.5034000e+02 </wgt>
<wgt id='1069'> -1.5435000e+02 </wgt>
<wgt id='1070'> -1.5203000e+02 </wgt>
<wgt id='1071'> -1.5010000e+02 </wgt>
<wgt id='1072'> -1.5026000e+02 </wgt>
<wgt id='1073'> -1.5595000e+02 </wgt>
<wgt id='1074'> -1.5171000e+02 </wgt>
<wgt id='1075'> -1.4810000e+02 </wgt>
<wgt id='1076'> -1.5482000e+02 </wgt>
<wgt id='1077'> -1.5141000e+02 </wgt>
<wgt id='1078'> -1.5274000e+02 </wgt>
<wgt id='1079'> -1.5288000e+02 </wgt>
<wgt id='1080'> -1.5533000e+02 </wgt>
<wgt id='1081'> -1.5120000e+02 </wgt>
<wgt id='1082'> -1.5100000e+02 </wgt>
<wgt id='1083'> -1.5477000e+02 </wgt>
<wgt id='1084'> -1.5246000e+02 </wgt>
<wgt id='1085'> -1.4829000e+02 </wgt>
<wgt id='1086'> -1.5205000e+02 </wgt>
<wgt id='1087'> -1.4780000e+02 </wgt>
<wgt id='1088'> -1.4981000e+02 </wgt>
<wgt id='1089'> -1.5201000e+02 </wgt>
<wgt id='1090'> -1.5343000e+02 </wgt>
<wgt id='1091'> -1.5116000e+02 </wgt>
<wgt id='1092'> -1.5103000e+02 </wgt>
<wgt id='1093'> -1.4844000e+02 </wgt>
<wgt id='1094'> -1.5271000e+02 </wgt>
<wgt id='1095'> -1.4928000e+02 </wgt>
<wgt id='1096'> -1.5372000e+02 </wgt>
<wgt id='1097'> -1.4524000e+02 </wgt>
<wgt id='1098'> -1.5368000e+02 </wgt>
<wgt id='1099'> -1.5117000e+02 </wgt>
<wgt id='1100'> -1.5674000e+02 </wgt>
<wgt id='1101'> -1.5273000e+02 </wgt>
<wgt id='1102'> -1.4561000e+02 </wgt>
<wgt id='1103'> -1.4768000e+02 </wgt>
<wgt id='1104'> -1.5473000e+02 </wgt>
<wgt id='1105'> -1.5146096e+02 </wgt>
<wgt id='1106'> -5.6601305e+01 </wgt>
<wgt id='1107'> -1.0654606e+02 </wgt>
<wgt id='1108'> -8.0307879e+01 </wgt>
<wgt id='1109'> -6.0011716e+01 </wgt>
<wgt id='1110'> -1.1300617e+02 </wgt>
<wgt id='1111'> -7.0032738e+01 </wgt>
<wgt id='1112'> -5.2355211e+01 </wgt>
<wgt id='1113'> -9.8506604e+01 </wgt>
<wgt id='1114'> -7.8706958e+01 </wgt>
<wgt id='1115'> -7.7701989e+01 </wgt>
<wgt id='1116'> -7.9121375e+01 </wgt>
<wgt id='1117'> -7.7246056e+01 </wgt>
<wgt id='1118'> -7.7433385e+01 </wgt>
<wgt id='1119'> -7.9223434e+01 </wgt>
<wgt id='1120'> -7.7892978e+01 </wgt>
<wgt id='1121'> -7.9766980e+01 </wgt>
<wgt id='1122'> -7.9350891e+01 </wgt>
<wgt id='1123'> -7.9318157e+01 </wgt>
<wgt id='1124'> -7.7097875e+01 </wgt>
<wgt id='1125'> -7.8349887e+01 </wgt>
<wgt id='1126'> -7.7292204e+01 </wgt>
<wgt id='1127'> -7.8714063e+01 </wgt>
<wgt id='1128'> -7.9094826e+01 </wgt>
<wgt id='1129'> -8.0524664e+01 </wgt>
<wgt id='1130'> -7.9919357e+01 </wgt>
<wgt id='1131'> -7.9366230e+01 </wgt>
<wgt id='1132'> -7.8127085e+01 </wgt>
<wgt id='1133'> -8.0457096e+01 </wgt>
<wgt id='1134'> -7.9523129e+01 </wgt>
<wgt id='1135'> -7.8340006e+01 </wgt>
<wgt id='1136'> -7.9292398e+01 </wgt>
<wgt id='1137'> -7.9716099e+01 </wgt>
<wgt id='1138'> -7.8262848e+01 </wgt>
<wgt id='1139'> -7.9523928e+01 </wgt>
<wgt id='1140'> -8.0837390e+01 </wgt>
<wgt id='1141'> -7.7602930e+01 </wgt>
<wgt id='1142'> -7.8522860e+01 </wgt>
<wgt id='1143'> -8.0224211e+01 </wgt>
<wgt id='1144'> -7.9284355e+01 </wgt>
<wgt id='1145'> -7.8502677e+01 </wgt>
<wgt id='1146'> -7.6583641e+01 </wgt>
<wgt id='1147'> -7.8780715e+01 </wgt>
<wgt id='1148'> -7.7526856e+01 </wgt>
<wgt id='1149'> -7.8486090e+01 </wgt>
<wgt id='1150'> -7.8717211e+01 </wgt>
<wgt id='1151'> -7.9433892e+01 </wgt>
<wgt id='1152'> -7.8707140e+01 </wgt>
<wgt id='1153'> -7.8731971e+01 </wgt>
<wgt id='1154'> -7.8743563e+01 </wgt>
<wgt id='1155'> -7.9832108e+01 </wgt>
<wgt id='1156'> -7.7094789e+01 </wgt>
<wgt id='1157'> -7.7786065e+01 </wgt>
<wgt id='1158'> -7.8268279e+01 </wgt>
<wgt id='1159'> -7.9246593e+01 </wgt>
<wgt id='1160'> -7.8969310e+01 </wgt>
<wgt id='1161'> -7.7547843e+01 </wgt>
<wgt id='1162'> -7.9319720e+01 </wgt>
<wgt id='1163'> -8.0060962e+01 </wgt>
<wgt id='1164'> -7.8961042e+01 </wgt>
<wgt id='1165'> -7.7955379e+01 </wgt>
<wgt id='1166'> -7.8710941e+01 </wgt>
<wgt id='1167'> -7.9009343e+01 </wgt>
<wgt id='1168'> -7.7511345e+01 </wgt>
<wgt id='1169'> -8.0039149e+01 </wgt>
<wgt id='1170'> -7.8532501e+01 </wgt>
<wgt id='1171'> -7.9413457e+01 </wgt>
<wgt id='1172'> -7.9564840e+01 </wgt>
<wgt id='1173'> -8.1018527e+01 </wgt>
<wgt id='1174'> -7.9833973e+01 </wgt>
<wgt id='1175'> -7.7291529e+01 </wgt>
<wgt id='1176'> -7.8278100e+01 </wgt>
<wgt id='1177'> -7.8938206e+01 </wgt>
<wgt id='1178'> -7.8722077e+01 </wgt>
<wgt id='1179'> -7.9297461e+01 </wgt>
<wgt id='1180'> -8.0189317e+01 </wgt>
<wgt id='1181'> -7.7888388e+01 </wgt>
<wgt id='1182'> -7.9526773e+01 </wgt>
<wgt id='1183'> -7.9218733e+01 </wgt>
<wgt id='1184'> -7.6968943e+01 </wgt>
<wgt id='1185'> -7.9637905e+01 </wgt>
<wgt id='1186'> -8.1613338e+01 </wgt>
<wgt id='1187'> -7.7804447e+01 </wgt>
<wgt id='1188'> -7.8908802e+01 </wgt>
<wgt id='1189'> -7.8553026e+01 </wgt>
<wgt id='1190'> -8.0675526e+01 </wgt>
<wgt id='1191'> -7.7412832e+01 </wgt>
<wgt id='1192'> -7.9375920e+01 </wgt>
<wgt id='1193'> -7.9361603e+01 </wgt>
<wgt id='1194'> -7.7411123e+01 </wgt>
<wgt id='1195'> -7.6860212e+01 </wgt>
<wgt id='1196'> -7.9919357e+01 </wgt>
<wgt id='1197'> -7.5626528e+01 </wgt>
<wgt id='1198'> -7.8720043e+01 </wgt>
<wgt id='1199'> -7.7976492e+01 </wgt>
<wgt id='1200'> -7.6943595e+01 </wgt>
<wgt id='1201'> -7.8331339e+01 </wgt>
<wgt id='1202'> -7.6385925e+01 </wgt>
<wgt id='1203'> -7.6803736e+01 </wgt>
<wgt id='1204'> -7.7937722e+01 </wgt>
<wgt id='1205'> -7.9661810e+01 </wgt>
<wgt id='1206'> -7.9716292e+01 </wgt>
<wgt id='1207'> -7.8915510e+01 </wgt>
<wgt id='1208'> -7.8462747e+01 </wgt>
<wgt id='1209'> -7.7052896e+01 </wgt>
<wgt id='1210'> -7.9280689e+01 </wgt>
<wgt id='1211'> -7.6769403e+01 </wgt>
<wgt id='1212'> -7.9106304e+01 </wgt>
<wgt id='1213'> -7.9273275e+01 </wgt>
<wgt id='1214'> -7.9751622e+01 </wgt>
<wgt id='1215'> -7.6311882e+01 </wgt>
<wgt id='1216'> -7.7983986e+01 </wgt>
<wgt id='1217'> -7.8146440e+01 </wgt>
<wgt id='1218'> -7.7870740e+01 </wgt>
<wgt id='1219'> -7.8160926e+01 </wgt>
<wgt id='1220'> -7.8009785e+01 </wgt>
<wgt id='1221'> -7.8191561e+01 </wgt>
<wgt id='1222'> -7.8096245e+01 </wgt>
<wgt id='1223'> -7.8144436e+01 </wgt>
<wgt id='1224'> -7.7849788e+01 </wgt>
<wgt id='1225'> -7.8080087e+01 </wgt>
<wgt id='1226'> -7.7875744e+01 </wgt>
<wgt id='1227'> -7.8036426e+01 </wgt>
<wgt id='1228'> -7.8135396e+01 </wgt>
<wgt id='1229'> -7.7649404e+01 </wgt>
<wgt id='1230'> -7.8246471e+01 </wgt>
<wgt id='1231'> -7.8087206e+01 </wgt>
<wgt id='1232'> -7.7916765e+01 </wgt>
<wgt id='1233'> -7.8162146e+01 </wgt>
<wgt id='1234'> -7.7957532e+01 </wgt>
<wgt id='1235'> -7.7806602e+01 </wgt>
<wgt id='1236'> -7.7834196e+01 </wgt>
<wgt id='1237'> -7.8073653e+01 </wgt>
<wgt id='1238'> -7.8046274e+01 </wgt>
<wgt id='1239'> -7.8202493e+01 </wgt>
<wgt id='1240'> -7.8092835e+01 </wgt>
<wgt id='1241'> -7.7774715e+01 </wgt>
<wgt id='1242'> -7.7902609e+01 </wgt>
<wgt id='1243'> -7.7930925e+01 </wgt>
<wgt id='1244'> -7.8130322e+01 </wgt>
<wgt id='1245'> -7.8357512e+01 </wgt>
<wgt id='1246'> -7.7617648e+01 </wgt>
<wgt id='1247'> -7.7592865e+01 </wgt>
<wgt id='1248'> -7.8089427e+01 </wgt>
<wgt id='1249'> -7.8019670e+01 </wgt>
<wgt id='1250'> -7.7943994e+01 </wgt>
<wgt id='1251'> -7.8087497e+01 </wgt>
<wgt id='1252'> -7.8076091e+01 </wgt>
<wgt id='1253'> -7.7853826e+01 </wgt>
<wgt id='1254'> -7.8038677e+01 </wgt>
<wgt id='1255'> -7.7971135e+01 </wgt>
<wgt id='1256'> -7.7936278e+01 </wgt>
<wgt id='1257'> -7.8020508e+01 </wgt>
<wgt id='1258'> -7.8071468e+01 </wgt>
<wgt id='1259'> -7.7936485e+01 </wgt>
<wgt id='1260'> -7.8007868e+01 </wgt>
<wgt id='1261'> -7.8058636e+01 </wgt>
<wgt id='1262'> -7.7964355e+01 </wgt>
<wgt id='1263'> -7.7977544e+01 </wgt>
<wgt id='1264'> -7.8102976e+01 </wgt>
<wgt id='1265'> -7.8034921e+01 </wgt>
<wgt id='1266'> -7.7929269e+01 </wgt>
<wgt id='1267'> -7.7985016e+01 </wgt>
<wgt id='1268'> -7.7975306e+01 </wgt>
<wgt id='1269'> -7.7831790e+01 </wgt>
<wgt id='1270'> -7.7931779e+01 </wgt>
<wgt id='1271'> -7.7995292e+01 </wgt>
<wgt id='1272'> -7.7867161e+01 </wgt>
<wgt id='1273'> -7.8014255e+01 </wgt>
<wgt id='1274'> -7.7830353e+01 </wgt>
<wgt id='1275'> -7.8013202e+01 </wgt>
<wgt id='1276'> -7.7988189e+01 </wgt>
<wgt id='1277'> -7.8016758e+01 </wgt>
<wgt id='1278'> -7.7902894e+01 </wgt>
<wgt id='1279'> -7.8056258e+01 </wgt>
<wgt id='1280'> -7.7915091e+01 </wgt>
<wgt id='1281'> -7.8099269e+01 </wgt>
<wgt id='1282'> -7.7981345e+01 </wgt>
<wgt id='1283'> -7.7857768e+01 </wgt>
<wgt id='1284'> -7.8078114e+01 </wgt>
<wgt id='1285'> -7.7892770e+01 </wgt>
<wgt id='1286'> -7.8033627e+01 </wgt>
<wgt id='1287'> -7.7970398e+01 </wgt>
<wgt id='1288'> -7.8056140e+01 </wgt>
<wgt id='1289'> -7.8014590e+01 </wgt>
<wgt id='1290'> -7.8028984e+01 </wgt>
<wgt id='1291'> -7.7916794e+01 </wgt>
<wgt id='1292'> -7.7984314e+01 </wgt>
<wgt id='1293'> -7.8010760e+01 </wgt>
<wgt id='1294'> -7.7980671e+01 </wgt>
<wgt id='1295'> -7.7932386e+01 </wgt>
<wgt id='1296'> -7.7991082e+01 </wgt>
<wgt id='1297'> -7.8019877e+01 </wgt>
<wgt id='1298'> -7.7924372e+01 </wgt>
<wgt id='1299'> -7.7992989e+01 </wgt>
<wgt id='1300'> -7.7925154e+01 </wgt>
<wgt id='1301'> -7.7939964e+01 </wgt>
<wgt id='1302'> -7.7984334e+01 </wgt>
<wgt id='1303'> -7.8019557e+01 </wgt>
<wgt id='1304'> -7.7919532e+01 </wgt>
<wgt id='1305'> -7.7900207e+01 </wgt>
<wgt id='1306'> -7.7933287e+01 </wgt>
<wgt id='1307'> -7.8006427e+01 </wgt>
<wgt id='1308'> -7.7957559e+01 </wgt>
<wgt id='1309'> -7.7964863e+01 </wgt>
<wgt id='1310'> -7.8046984e+01 </wgt>
<wgt id='1311'> -7.8003146e+01 </wgt>
<wgt id='1312'> -7.7943115e+01 </wgt>
<wgt id='1313'> -7.7991863e+01 </wgt>
<wgt id='1314'> -7.8013544e+01 </wgt>
<wgt id='1315'> -7.7942750e+01 </wgt>
<wgt id='1316'> -7.7940239e+01 </wgt>
<wgt id='1317'> -7.4499960e+01 </wgt>
<wgt id='1318'> -8.1784732e+01 </wgt>
<wgt id='1319'> -7.1509064e+01 </wgt>
<wgt id='1320'> -7.7719364e+01 </wgt>
<wgt id='1321'> -7.7808479e+01 </wgt>
<wgt id='1322'> -7.8121449e+01 </wgt>
<wgt id='1323'> -7.8703617e+01 </wgt>
<wgt id='1324'> -7.7115724e+01 </wgt>
<wgt id='1325'> -7.7468266e+01 </wgt>
<wgt id='1326'> -7.8515871e+01 </wgt>
<wgt id='1327'> -7.7489170e+01 </wgt>
<wgt id='1328'> -7.8033713e+01 </wgt>
<wgt id='1329'> -7.6418739e+01 </wgt>
<wgt id='1330'> -7.9514339e+01 </wgt>
<wgt id='1331'> -7.9370064e+01 </wgt>
<wgt id='1332'> -7.6808507e+01 </wgt>
<wgt id='1333'> -7.6197768e+01 </wgt>
<wgt id='1334'> -7.8444368e+01 </wgt>
<wgt id='1335'> -7.7742853e+01 </wgt>
<wgt id='1336'> -7.7474102e+01 </wgt>
<wgt id='1337'> -7.8122152e+01 </wgt>
<wgt id='1338'> -7.7247848e+01 </wgt>
<wgt id='1339'> -7.8971283e+01 </wgt>
<wgt id='1340'> -7.6391738e+01 </wgt>
<wgt id='1341'> -7.7874097e+01 </wgt>
<wgt id='1342'> -7.7368861e+01 </wgt>
<wgt id='1343'> -7.7583189e+01 </wgt>
<wgt id='1344'> -7.7887947e+01 </wgt>
<wgt id='1345'> -7.7012532e+01 </wgt>
<wgt id='1346'> -7.8341348e+01 </wgt>
<wgt id='1347'> -7.7488379e+01 </wgt>
<wgt id='1348'> -7.8028923e+01 </wgt>
<wgt id='1349'> -7.6955612e+01 </wgt>
<wgt id='1350'> -7.7985352e+01 </wgt>
<wgt id='1351'> -7.7793412e+01 </wgt>
<wgt id='1352'> -7.7621917e+01 </wgt>
<wgt id='1353'> -7.7907608e+01 </wgt>
<wgt id='1354'> -7.7288114e+01 </wgt>
<wgt id='1355'> -7.8040227e+01 </wgt>
<wgt id='1356'> -7.7440776e+01 </wgt>
<wgt id='1357'> -7.7850256e+01 </wgt>
<wgt id='1358'> -7.7363010e+01 </wgt>
<wgt id='1359'> -7.7301414e+01 </wgt>
<wgt id='1360'> -7.7787424e+01 </wgt>
<wgt id='1361'> -7.8320318e+01 </wgt>
<wgt id='1362'> -7.7174831e+01 </wgt>
<wgt id='1363'> -7.8161338e+01 </wgt>
<wgt id='1364'> -7.7203313e+01 </wgt>
<wgt id='1365'> -7.7400053e+01 </wgt>
<wgt id='1366'> -7.7267482e+01 </wgt>
<wgt id='1367'> -7.7222842e+01 </wgt>
<wgt id='1368'> -7.7842109e+01 </wgt>
<wgt id='1369'> -7.7988354e+01 </wgt>
<wgt id='1370'> -7.6448434e+01 </wgt>
<wgt id='1371'> -7.7655632e+01 </wgt>
<wgt id='1372'> -7.8085164e+01 </wgt>
<wgt id='1373'> -7.6783616e+01 </wgt>
<wgt id='1374'> -7.7951346e+01 </wgt>
<wgt id='1375'> -7.7295259e+01 </wgt>
<wgt id='1376'> -7.8179363e+01 </wgt>
<wgt id='1377'> -7.4138336e+01 </wgt>
<wgt id='1378'> -8.1265819e+01 </wgt>
<wgt id='1379'> -7.7477787e+01 </wgt>
<wgt id='1380'> -7.4081750e+01 </wgt>
<wgt id='1381'> -8.0816513e+01 </wgt>
<wgt id='1382'> -6.9445950e+01 </wgt>
<wgt id='1383'> -7.6357999e+01 </wgt>
<wgt id='1384'> -7.7511896e+01 </wgt>
<wgt id='1385'> -9.4319732e+01 </wgt>
<wgt id='1386'> -9.4524593e+01 </wgt>
<wgt id='1387'> -9.4090613e+01 </wgt>
<wgt id='1388'> -9.4191940e+01 </wgt>
<wgt id='1389'> -9.4529583e+01 </wgt>
<wgt id='1390'> -9.4290642e+01 </wgt>
<wgt id='1391'> -9.4352941e+01 </wgt>
<wgt id='1392'> -9.4518173e+01 </wgt>
<wgt id='1393'> -9.4179207e+01 </wgt>
<wgt id='1394'> -9.4353961e+01 </wgt>
<wgt id='1395'> -9.4272504e+01 </wgt>
<wgt id='1396'> -9.3871185e+01 </wgt>
<wgt id='1397'> -9.4551079e+01 </wgt>
<wgt id='1398'> -9.4054136e+01 </wgt>
<wgt id='1399'> -9.4513378e+01 </wgt>
<wgt id='1400'> -9.4711306e+01 </wgt>
<wgt id='1401'> -9.4011246e+01 </wgt>
<wgt id='1402'> -9.4716003e+01 </wgt>
<wgt id='1403'> -9.4139015e+01 </wgt>
<wgt id='1404'> -9.2872754e+01 </wgt>
<wgt id='1405'> -9.5021842e+01 </wgt>
<wgt id='1406'> -9.4124595e+01 </wgt>
<wgt id='1407'> -9.4669017e+01 </wgt>
<wgt id='1408'> -9.4513183e+01 </wgt>
<wgt id='1409'> -9.3923858e+01 </wgt>
<wgt id='1410'> -9.4378062e+01 </wgt>
<wgt id='1411'> -9.4134801e+01 </wgt>
<wgt id='1412'> -9.4875169e+01 </wgt>
<wgt id='1413'> -9.3633125e+01 </wgt>
<wgt id='1414'> -9.4396574e+01 </wgt>
<wgt id='1415'> -9.4206060e+01 </wgt>
<wgt id='1416'> -9.4573964e+01 </wgt>
<wgt id='1417'> -9.4256780e+01 </wgt>
<wgt id='1418'> -9.4134633e+01 </wgt>
<wgt id='1419'> -9.4711125e+01 </wgt>
<wgt id='1420'> -9.3918589e+01 </wgt>
<wgt id='1421'> -9.4416708e+01 </wgt>
<wgt id='1422'> -9.4451540e+01 </wgt>
<wgt id='1423'> -9.4195831e+01 </wgt>
<wgt id='1424'> -9.4570121e+01 </wgt>
<wgt id='1425'> -9.3794639e+01 </wgt>
<wgt id='1426'> -9.4450584e+01 </wgt>
<wgt id='1427'> -9.4243271e+01 </wgt>
<wgt id='1428'> -9.4223383e+01 </wgt>
<wgt id='1429'> -9.4127925e+01 </wgt>
<wgt id='1430'> -9.4440629e+01 </wgt>
<wgt id='1431'> -9.4319681e+01 </wgt>
<wgt id='1432'> -9.4394841e+01 </wgt>
<wgt id='1433'> -9.4378690e+01 </wgt>
<wgt id='1434'> -9.4536142e+01 </wgt>
<wgt id='1435'> -9.4810795e+01 </wgt>
<wgt id='1436'> -6.8041553e+01 </wgt>
<wgt id='1437'> -6.8046531e+01 </wgt>
<wgt id='1438'> -6.7987684e+01 </wgt>
<wgt id='1439'> -6.8040446e+01 </wgt>
<wgt id='1440'> -6.8118439e+01 </wgt>
<wgt id='1441'> -6.8188333e+01 </wgt>
<wgt id='1442'> -6.7816057e+01 </wgt>
<wgt id='1443'> -6.8167500e+01 </wgt>
<wgt id='1444'> -6.7674370e+01 </wgt>
<wgt id='1445'> -6.7360813e+01 </wgt>
<wgt id='1446'> -6.8352568e+01 </wgt>
<wgt id='1447'> -6.8118378e+01 </wgt>
<wgt id='1448'> -6.7929929e+01 </wgt>
<wgt id='1449'> -6.8104369e+01 </wgt>
<wgt id='1450'> -6.8096621e+01 </wgt>
<wgt id='1451'> -6.8185859e+01 </wgt>
<wgt id='1452'> -6.7581645e+01 </wgt>
<wgt id='1453'> -6.8090370e+01 </wgt>
<wgt id='1454'> -6.8244131e+01 </wgt>
<wgt id='1455'> -6.7709730e+01 </wgt>
<wgt id='1456'> -6.7994301e+01 </wgt>
<wgt id='1457'> -6.8172174e+01 </wgt>
<wgt id='1458'> -6.8440004e+01 </wgt>
<wgt id='1459'> -6.8243667e+01 </wgt>
<wgt id='1460'> -6.8167778e+01 </wgt>
<wgt id='1461'> -6.8622359e+01 </wgt>
<wgt id='1462'> -6.7947957e+01 </wgt>
<wgt id='1463'> -6.8188447e+01 </wgt>
<wgt id='1464'> -6.7731829e+01 </wgt>
<wgt id='1465'> -8.0411842e+01 </wgt>
<wgt id='1466'> -7.6529998e+01 </wgt>
<wgt id='1467'> -7.6311688e+01 </wgt>
<wgt id='1468'> -7.6644949e+01 </wgt>
<wgt id='1469'> -7.6784146e+01 </wgt>
<wgt id='1470'> -7.6396001e+01 </wgt>
<wgt id='1471'> -7.6412286e+01 </wgt>
<wgt id='1472'> -7.6155713e+01 </wgt>
<wgt id='1473'> -7.6945276e+01 </wgt>
<wgt id='1474'> -7.7324036e+01 </wgt>
<wgt id='1475'> -7.6018482e+01 </wgt>
<wgt id='1476'> -7.6505225e+01 </wgt>
<wgt id='1477'> -7.6476767e+01 </wgt>
<wgt id='1478'> -7.5945839e+01 </wgt>
<wgt id='1479'> -7.7082962e+01 </wgt>
<wgt id='1480'> -7.6440857e+01 </wgt>
<wgt id='1481'> -7.6376860e+01 </wgt>
<wgt id='1482'> -7.6566492e+01 </wgt>
<wgt id='1483'> -7.6323012e+01 </wgt>
<wgt id='1484'> -7.6878175e+01 </wgt>
<wgt id='1485'> -7.6322081e+01 </wgt>
<wgt id='1486'> -7.6603783e+01 </wgt>
<wgt id='1487'> -7.6479990e+01 </wgt>
<wgt id='1488'> -7.6182373e+01 </wgt>
<wgt id='1489'> -7.6881845e+01 </wgt>
<wgt id='1490'> -7.6512651e+01 </wgt>
<wgt id='1491'> -7.6775118e+01 </wgt>
<wgt id='1492'> -7.6470099e+01 </wgt>
<wgt id='1493'> -7.6355674e+01 </wgt>
<wgt id='1494'> -7.6716174e+01 </wgt>
<wgt id='1495'> -7.6427000e+01 </wgt>
<wgt id='1496'> -7.6311201e+01 </wgt>
<wgt id='1497'> -7.6575375e+01 </wgt>
<wgt id='1498'> -7.6412252e+01 </wgt>
<wgt id='1499'> -7.6158987e+01 </wgt>
<wgt id='1500'> -7.6636067e+01 </wgt>
<wgt id='1501'> -7.6705597e+01 </wgt>
<wgt id='1502'> -7.6418800e+01 </wgt>
<wgt id='1503'> -7.6369419e+01 </wgt>
<wgt id='1504'> -7.6545487e+01 </wgt>
<wgt id='1505'> -7.6721993e+01 </wgt>
<wgt id='1506'> -7.6583459e+01 </wgt>
<wgt id='1507'> -7.6660023e+01 </wgt>
<wgt id='1508'> -7.6453940e+01 </wgt>
<wgt id='1509'> -7.6495934e+01 </wgt>
<wgt id='1510'> -7.6676091e+01 </wgt>
<wgt id='1511'> -7.6583708e+01 </wgt>
<wgt id='1512'> -7.6442963e+01 </wgt>
<wgt id='1513'> -7.6368706e+01 </wgt>
<wgt id='1514'> -7.6455623e+01 </wgt>
<wgt id='1515'> -7.6521876e+01 </wgt>
<wgt id='1516'> -7.6505355e+01 </wgt>
<wgt id='1517'> -7.6492635e+01 </wgt>
<wgt id='1518'> -7.6511839e+01 </wgt>
<wgt id='1519'> -7.6616304e+01 </wgt>
<wgt id='1520'> -7.6548115e+01 </wgt>
<wgt id='1521'> -7.6517363e+01 </wgt>
<wgt id='1522'> -7.6641578e+01 </wgt>
<wgt id='1523'> -7.6529490e+01 </wgt>
<wgt id='1524'> -7.6608205e+01 </wgt>
<wgt id='1525'> -7.6481259e+01 </wgt>
<wgt id='1526'> -7.6394891e+01 </wgt>
<wgt id='1527'> -7.6482760e+01 </wgt>
<wgt id='1528'> -7.6443772e+01 </wgt>
<wgt id='1529'> -7.6505541e+01 </wgt>
<wgt id='1530'> -7.6494367e+01 </wgt>
<wgt id='1531'> -7.6501408e+01 </wgt>
<wgt id='1532'> -7.6461187e+01 </wgt>
<wgt id='1533'> -7.6507805e+01 </wgt>
<wgt id='1534'> -7.6538451e+01 </wgt>
<wgt id='1535'> -7.6533101e+01 </wgt>
<wgt id='1536'> -7.6498075e+01 </wgt>
<wgt id='1537'> -7.6478085e+01 </wgt>
<wgt id='1538'> -7.6511030e+01 </wgt>
<wgt id='1539'> -7.6525051e+01 </wgt>
<wgt id='1540'> -7.6501776e+01 </wgt>
<wgt id='1541'> -7.6510893e+01 </wgt>
<wgt id='1542'> -7.6521439e+01 </wgt>
<wgt id='1543'> -7.6493781e+01 </wgt>
<wgt id='1544'> -7.6522948e+01 </wgt>
<wgt id='1545'> -7.6604683e+01 </wgt>
<wgt id='1546'> -7.6544881e+01 </wgt>
<wgt id='1547'> -7.6535281e+01 </wgt>
<wgt id='1548'> -7.6480904e+01 </wgt>
<wgt id='1549'> -7.6538846e+01 </wgt>
<wgt id='1550'> -7.6550081e+01 </wgt>
<wgt id='1551'> -7.6521237e+01 </wgt>
<wgt id='1552'> -7.6562658e+01 </wgt>
<wgt id='1553'> -7.6504280e+01 </wgt>
<wgt id='1554'> -7.6514728e+01 </wgt>
<wgt id='1555'> -7.6561987e+01 </wgt>
<wgt id='1556'> -7.6524176e+01 </wgt>
<wgt id='1557'> -7.6528293e+01 </wgt>
<wgt id='1558'> -7.6566469e+01 </wgt>
<wgt id='1559'> -7.6547374e+01 </wgt>
<wgt id='1560'> -7.6534975e+01 </wgt>
<wgt id='1561'> -7.6505475e+01 </wgt>
<wgt id='1562'> -7.6542070e+01 </wgt>
<wgt id='1563'> -7.6506081e+01 </wgt>
<wgt id='1564'> -7.6541224e+01 </wgt>
<wgt id='1565'> -7.6522482e+01 </wgt>
<wgt id='1566'> -7.6531753e+01 </wgt>
<wgt id='1567'> -7.3808129e+01 </wgt>
<wgt id='1568'> -7.9227512e+01 </wgt>
<wgt id='1569'> -7.7134299e+01 </wgt>
<wgt id='1570'> -7.7389462e+01 </wgt>
<wgt id='1571'> -7.7101583e+01 </wgt>
<wgt id='1572'> -7.6955598e+01 </wgt>
<wgt id='1573'> -7.7184563e+01 </wgt>
<wgt id='1574'> -7.7394350e+01 </wgt>
<wgt id='1575'> -7.6988880e+01 </wgt>
<wgt id='1576'> -7.6990586e+01 </wgt>
<wgt id='1577'> -7.7218050e+01 </wgt>
<wgt id='1578'> -7.7161028e+01 </wgt>
<wgt id='1579'> -7.7312402e+01 </wgt>
<wgt id='1580'> -7.7330006e+01 </wgt>
<wgt id='1581'> -7.6478464e+01 </wgt>
<wgt id='1582'> -7.6693778e+01 </wgt>
<wgt id='1583'> -7.6485281e+01 </wgt>
<wgt id='1584'> -7.6969571e+01 </wgt>
<wgt id='1585'> -7.7087036e+01 </wgt>
<wgt id='1586'> -7.7292293e+01 </wgt>
<wgt id='1587'> -7.7233138e+01 </wgt>
<wgt id='1588'> -7.6648818e+01 </wgt>
<wgt id='1589'> -7.7341406e+01 </wgt>
<wgt id='1590'> -7.7338881e+01 </wgt>
<wgt id='1591'> -7.6982642e+01 </wgt>
<wgt id='1592'> -7.7325949e+01 </wgt>
<wgt id='1593'> -7.7475655e+01 </wgt>
<wgt id='1594'> -7.7210782e+01 </wgt>
<wgt id='1595'> -7.7090256e+01 </wgt>
<wgt id='1596'> -7.7163375e+01 </wgt>
<wgt id='1597'> -7.7162591e+01 </wgt>
<wgt id='1598'> -7.7185353e+01 </wgt>
<wgt id='1599'> -7.7277711e+01 </wgt>
<wgt id='1600'> -7.7386953e+01 </wgt>
<wgt id='1601'> -7.7353942e+01 </wgt>
<wgt id='1602'> -7.7619358e+01 </wgt>
<wgt id='1603'> -7.7330762e+01 </wgt>
<wgt id='1604'> -7.7083292e+01 </wgt>
<wgt id='1605'> -7.7196907e+01 </wgt>
<wgt id='1606'> -7.7050351e+01 </wgt>
<wgt id='1607'> -7.7131867e+01 </wgt>
<wgt id='1608'> -7.7153340e+01 </wgt>
<wgt id='1609'> -7.7049895e+01 </wgt>
<wgt id='1610'> -7.7195512e+01 </wgt>
<wgt id='1611'> -7.7211521e+01 </wgt>
<wgt id='1612'> -7.6922280e+01 </wgt>
<wgt id='1613'> -7.7149586e+01 </wgt>
<wgt id='1614'> -7.6980017e+01 </wgt>
<wgt id='1615'> -7.7115800e+01 </wgt>
<wgt id='1616'> -7.7113903e+01 </wgt>
<wgt id='1617'> -7.7323500e+01 </wgt>
<wgt id='1618'> -7.7093730e+01 </wgt>
<wgt id='1619'> -7.7191777e+01 </wgt>
<wgt id='1620'> -7.7111536e+01 </wgt>
<wgt id='1621'> -7.7016032e+01 </wgt>
<wgt id='1622'> -7.7208012e+01 </wgt>
<wgt id='1623'> -7.7117917e+01 </wgt>
<wgt id='1624'> -7.7172168e+01 </wgt>
<wgt id='1625'> -7.7154307e+01 </wgt>
<wgt id='1626'> -7.7097651e+01 </wgt>
<wgt id='1627'> -7.7099527e+01 </wgt>
<wgt id='1628'> -7.7106140e+01 </wgt>
<wgt id='1629'> -7.7043409e+01 </wgt>
<wgt id='1630'> -7.7206030e+01 </wgt>
<wgt id='1631'> -7.7102162e+01 </wgt>
<wgt id='1632'> -7.7149465e+01 </wgt>
<wgt id='1633'> -7.7043858e+01 </wgt>
<wgt id='1634'> -7.7198393e+01 </wgt>
<wgt id='1635'> -7.7158547e+01 </wgt>
<wgt id='1636'> -7.7178213e+01 </wgt>
<wgt id='1637'> -7.7189219e+01 </wgt>
<wgt id='1638'> -7.7174375e+01 </wgt>
<wgt id='1639'> -7.7161923e+01 </wgt>
<wgt id='1640'> -7.7203240e+01 </wgt>
<wgt id='1641'> -7.7143513e+01 </wgt>
<wgt id='1642'> -7.7160024e+01 </wgt>
<wgt id='1643'> -7.7156436e+01 </wgt>
<wgt id='1644'> -7.7124718e+01 </wgt>
<wgt id='1645'> -7.7065529e+01 </wgt>
<wgt id='1646'> -7.7141774e+01 </wgt>
<wgt id='1647'> -7.7132011e+01 </wgt>
<wgt id='1648'> -7.7122407e+01 </wgt>
<wgt id='1649'> -7.7197160e+01 </wgt>
<wgt id='1650'> -7.7110604e+01 </wgt>
<wgt id='1651'> -7.7156143e+01 </wgt>
<wgt id='1652'> -7.7109421e+01 </wgt>
<wgt id='1653'> -7.7135382e+01 </wgt>
<wgt id='1654'> -7.7128416e+01 </wgt>
<wgt id='1655'> -7.7173011e+01 </wgt>
<wgt id='1656'> -7.7093283e+01 </wgt>
<wgt id='1657'> -7.7135848e+01 </wgt>
<wgt id='1658'> -7.7139228e+01 </wgt>
<wgt id='1659'> -7.7161536e+01 </wgt>
<wgt id='1660'> -7.7083215e+01 </wgt>
<wgt id='1661'> -7.7128512e+01 </wgt>
<wgt id='1662'> -7.7102076e+01 </wgt>
<wgt id='1663'> -7.7159952e+01 </wgt>
<wgt id='1664'> -7.7115454e+01 </wgt>
<wgt id='1665'> -7.7104555e+01 </wgt>
<wgt id='1666'> -7.7139420e+01 </wgt>
<wgt id='1667'> -7.7147855e+01 </wgt>
<wgt id='1668'> -7.7126974e+01 </wgt>
<wgt id='1669'> -7.7122111e+01 </wgt>
<wgt id='1670'> -7.4372436e+01 </wgt>
<wgt id='1671'> -7.9601856e+01 </wgt>
<wgt id='1672'> -7.6649831e+01 </wgt>
<wgt id='1673'> -7.6209127e+01 </wgt>
<wgt id='1674'> -7.6386126e+01 </wgt>
<wgt id='1675'> -7.6666852e+01 </wgt>
<wgt id='1676'> -7.7634113e+01 </wgt>
<wgt id='1677'> -7.7574757e+01 </wgt>
<wgt id='1678'> -7.6629353e+01 </wgt>
<wgt id='1679'> -7.6604555e+01 </wgt>
<wgt id='1680'> -7.6825895e+01 </wgt>
<wgt id='1681'> -7.6501352e+01 </wgt>
<wgt id='1682'> -7.6716434e+01 </wgt>
<wgt id='1683'> -7.6731387e+01 </wgt>
<wgt id='1684'> -7.7001800e+01 </wgt>
<wgt id='1685'> -7.6637033e+01 </wgt>
<wgt id='1686'> -7.6696557e+01 </wgt>
<wgt id='1687'> -7.6751735e+01 </wgt>
<wgt id='1688'> -7.6683820e+01 </wgt>
<wgt id='1689'> -7.6454465e+01 </wgt>
<wgt id='1690'> -7.6642470e+01 </wgt>
<wgt id='1691'> -7.6834784e+01 </wgt>
<wgt id='1692'> -7.6860927e+01 </wgt>
<wgt id='1693'> -7.6518580e+01 </wgt>
<wgt id='1694'> -7.6497101e+01 </wgt>
<wgt id='1695'> -7.6722270e+01 </wgt>
<wgt id='1696'> -7.6471038e+01 </wgt>
<wgt id='1697'> -7.6686843e+01 </wgt>
<wgt id='1698'> -7.6479164e+01 </wgt>
<wgt id='1699'> -7.6775049e+01 </wgt>
<wgt id='1700'> -7.6522102e+01 </wgt>
<wgt id='1701'> -7.6686941e+01 </wgt>
<wgt id='1702'> -7.6673386e+01 </wgt>
<wgt id='1703'> -7.3808129e+01 </wgt>
<wgt id='1704'> -7.9227512e+01 </wgt>
<wgt id='1705'> -7.7145670e+01 </wgt>
<wgt id='1706'> -7.7544871e+01 </wgt>
<wgt id='1707'> -7.7067692e+01 </wgt>
<wgt id='1708'> -7.7092056e+01 </wgt>
<wgt id='1709'> -7.6779600e+01 </wgt>
<wgt id='1710'> -7.6358069e+01 </wgt>
<wgt id='1711'> -7.7168318e+01 </wgt>
<wgt id='1712'> -7.7053751e+01 </wgt>
<wgt id='1713'> -7.7162090e+01 </wgt>
<wgt id='1714'> -7.6795711e+01 </wgt>
<wgt id='1715'> -7.7063063e+01 </wgt>
<wgt id='1716'> -7.6819135e+01 </wgt>
<wgt id='1717'> -7.7152092e+01 </wgt>
<wgt id='1718'> -7.7222843e+01 </wgt>
<wgt id='1719'> -7.7037611e+01 </wgt>
<wgt id='1720'> -7.7065859e+01 </wgt>
<wgt id='1721'> -7.7074051e+01 </wgt>
<wgt id='1722'> -7.7143341e+01 </wgt>
<wgt id='1723'> -7.7205764e+01 </wgt>
<wgt id='1724'> -7.7276342e+01 </wgt>
<wgt id='1725'> -7.6420625e+01 </wgt>
<wgt id='1726'> -7.7231095e+01 </wgt>
<wgt id='1727'> -7.7876278e+01 </wgt>
<wgt id='1728'> -7.7136120e+01 </wgt>
<wgt id='1729'> -7.7131110e+01 </wgt>
<wgt id='1730'> -7.7116246e+01 </wgt>
<wgt id='1731'> -7.7264572e+01 </wgt>
<wgt id='1732'> -7.7165358e+01 </wgt>
<wgt id='1733'> -7.7152404e+01 </wgt>
<wgt id='1734'> -7.7209246e+01 </wgt>
<wgt id='1735'> -7.7244553e+01 </wgt>
<wgt id='1736'> -7.4372436e+01 </wgt>
<wgt id='1737'> -7.9601856e+01 </wgt>
<wgt id='1738'> -8.4493493e+01 </wgt>
<wgt id='1739'> -8.4502366e+01 </wgt>
<wgt id='1740'> -8.4484551e+01 </wgt>
<wgt id='1741'> -8.4477006e+01 </wgt>
<wgt id='1742'> -8.4509678e+01 </wgt>
<wgt id='1743'> -8.4520987e+01 </wgt>
<wgt id='1744'> -8.4465369e+01 </wgt>
<wgt id='1745'> -8.4473326e+01 </wgt>
<wgt id='1746'> -8.4512827e+01 </wgt>
<wgt id='1747'> -8.4827074e+01 </wgt>
<wgt id='1748'> -8.4159202e+01 </wgt>
<wgt id='1749'> -8.4531476e+01 </wgt>
<wgt id='1750'> -8.4466912e+01 </wgt>
<wgt id='1751'> -8.4111521e+01 </wgt>
<wgt id='1752'> -8.4875483e+01 </wgt>
<wgt id='1753'> -8.4293615e+01 </wgt>
<wgt id='1754'> -8.4614475e+01 </wgt>
<wgt id='1755'> -8.4418939e+01 </wgt>
<wgt id='1756'> -8.4557688e+01 </wgt>
<wgt id='1757'> -8.4350063e+01 </wgt>
<wgt id='1758'> -8.4625082e+01 </wgt>
<wgt id='1759'> -8.4880257e+01 </wgt>
<wgt id='1760'> -8.4072594e+01 </wgt>
<wgt id='1761'> -8.4023606e+01 </wgt>
<wgt id='1762'> -8.4725723e+01 </wgt>
<wgt id='1763'> -8.5151912e+01 </wgt>
<wgt id='1764'> -8.3918746e+01 </wgt>
<wgt id='1765'> -8.4124079e+01 </wgt>
<wgt id='1766'> -8.4720600e+01 </wgt>
<wgt id='1767'> -8.4493493e+01 </wgt>
<wgt id='1768'> -8.4342602e+01 </wgt>
<wgt id='1769'> -8.4682378e+01 </wgt>
<wgt id='1770'> -8.4310762e+01 </wgt>
<wgt id='1771'> -8.4625869e+01 </wgt>
<wgt id='1772'> -8.5024698e+01 </wgt>
<wgt id='1773'> -8.3865408e+01 </wgt>
<wgt id='1774'> -8.4348053e+01 </wgt>
<wgt id='1775'> -8.4643553e+01 </wgt>
<wgt id='1776'> -8.4244052e+01 </wgt>
<wgt id='1777'> -8.4762856e+01 </wgt>
<wgt id='1778'> -8.4485220e+01 </wgt>
<wgt id='1779'> -8.4738115e+01 </wgt>
<wgt id='1780'> -8.3631231e+01 </wgt>
<wgt id='1781'> -8.2716549e+01 </wgt>
<wgt id='1782'> -8.2739253e+01 </wgt>
<wgt id='1783'> -8.2717735e+01 </wgt>
<wgt id='1784'> -8.2703586e+01 </wgt>
<wgt id='1785'> -8.2753462e+01 </wgt>
<wgt id='1786'> -8.2752347e+01 </wgt>
<wgt id='1787'> -8.2703730e+01 </wgt>
<wgt id='1788'> -8.2683559e+01 </wgt>
<wgt id='1789'> -8.2773306e+01 </wgt>
<wgt id='1790'> -8.2908589e+01 </wgt>
<wgt id='1791'> -8.2549616e+01 </wgt>
<wgt id='1792'> -8.2903339e+01 </wgt>
<wgt id='1793'> -8.2553447e+01 </wgt>
<wgt id='1794'> -8.2354645e+01 </wgt>
<wgt id='1795'> -8.3100238e+01 </wgt>
<wgt id='1796'> -8.2547513e+01 </wgt>
<wgt id='1797'> -8.2850582e+01 </wgt>
<wgt id='1798'> -8.2847424e+01 </wgt>
<wgt id='1799'> -8.2599697e+01 </wgt>
<wgt id='1800'> -8.2774661e+01 </wgt>
<wgt id='1801'> -8.2681786e+01 </wgt>
<wgt id='1802'> -8.2043634e+01 </wgt>
<wgt id='1803'> -8.3375092e+01 </wgt>
<wgt id='1804'> -8.3088569e+01 </wgt>
<wgt id='1805'> -8.2400580e+01 </wgt>
<wgt id='1806'> -8.2299284e+01 </wgt>
<wgt id='1807'> -8.3019427e+01 </wgt>
<wgt id='1808'> -8.2409957e+01 </wgt>
<wgt id='1809'> -8.2869065e+01 </wgt>
<wgt id='1810'> -8.2496776e+01 </wgt>
<wgt id='1811'> -8.2356291e+01 </wgt>
<wgt id='1812'> -8.2566423e+01 </wgt>
<wgt id='1813'> -8.2272409e+01 </wgt>
<wgt id='1814'> -8.2607224e+01 </wgt>
<wgt id='1815'> -8.2902474e+01 </wgt>
<wgt id='1816'> -8.1516386e+01 </wgt>
<wgt id='1817'> -8.2381089e+01 </wgt>
<wgt id='1818'> -8.2871485e+01 </wgt>
<wgt id='1819'> -8.1497803e+01 </wgt>
<wgt id='1820'> -8.2910187e+01 </wgt>
<wgt id='1821'> -8.1449432e+01 </wgt>
<wgt id='1822'> -8.3664603e+01 </wgt>
<wgt id='1823'> -8.1121795e+01 </wgt>
<wgt id='1824'> -7.7348428e+01 </wgt>
<wgt id='1825'> -7.7335188e+01 </wgt>
<wgt id='1826'> -7.7321853e+01 </wgt>
<wgt id='1827'> -7.7308622e+01 </wgt>
<wgt id='1828'> -7.7295313e+01 </wgt>
<wgt id='1829'> -7.7282173e+01 </wgt>
<wgt id='1830'> -7.7268829e+01 </wgt>
<wgt id='1831'> -7.7255601e+01 </wgt>
<wgt id='1832'> -7.7242299e+01 </wgt>
<wgt id='1833'> -7.7229090e+01 </wgt>
<wgt id='1834'> -7.7215742e+01 </wgt>
<wgt id='1835'> -7.7202434e+01 </wgt>
<wgt id='1836'> -7.7189228e+01 </wgt>
<wgt id='1837'> -7.7175930e+01 </wgt>
<wgt id='1838'> -7.7162760e+01 </wgt>
<wgt id='1839'> -7.7149438e+01 </wgt>
<wgt id='1840'> -7.7136238e+01 </wgt>
<wgt id='1841'> -7.7122946e+01 </wgt>
<wgt id='1842'> -7.7109711e+01 </wgt>
<wgt id='1843'> -7.7096412e+01 </wgt>
<wgt id='1844'> -7.7083199e+01 </wgt>
<wgt id='1845'> -7.7069901e+01 </wgt>
<wgt id='1846'> -7.7056695e+01 </wgt>
<wgt id='1847'> -7.7043463e+01 </wgt>
<wgt id='1848'> -7.7030246e+01 </wgt>
<wgt id='1849'> -7.7016921e+01 </wgt>
<wgt id='1850'> -7.7003740e+01 </wgt>
<wgt id='1851'> -7.6990454e+01 </wgt>
<wgt id='1852'> -7.6977268e+01 </wgt>
<wgt id='1853'> -7.6963948e+01 </wgt>
<wgt id='1854'> -7.6950734e+01 </wgt>
<wgt id='1855'> -7.6657508e+01 </wgt>
<wgt id='1856'> -7.6907539e+01 </wgt>
<wgt id='1857'> -7.6624050e+01 </wgt>
<wgt id='1858'> -7.6480418e+01 </wgt>
<wgt id='1859'> -7.6706827e+01 </wgt>
<wgt id='1860'> -7.6916160e+01 </wgt>
<wgt id='1861'> -7.6515760e+01 </wgt>
<wgt id='1862'> -7.6516786e+01 </wgt>
<wgt id='1863'> -7.6740697e+01 </wgt>
<wgt id='1864'> -7.6684837e+01 </wgt>
<wgt id='1865'> -7.6833677e+01 </wgt>
<wgt id='1866'> -7.6855572e+01 </wgt>
<wgt id='1867'> -7.6007713e+01 </wgt>
<wgt id='1868'> -7.6221685e+01 </wgt>
<wgt id='1869'> -7.6012004e+01 </wgt>
<wgt id='1870'> -7.6488207e+01 </wgt>
<wgt id='1871'> -7.6614478e+01 </wgt>
<wgt id='1872'> -7.6812743e+01 </wgt>
<wgt id='1873'> -7.6754949e+01 </wgt>
<wgt id='1874'> -7.6178490e+01 </wgt>
<wgt id='1875'> -7.6866268e+01 </wgt>
<wgt id='1876'> -7.6858084e+01 </wgt>
<wgt id='1877'> -7.6507005e+01 </wgt>
<wgt id='1878'> -7.6847299e+01 </wgt>
<wgt id='1879'> -7.6993841e+01 </wgt>
<wgt id='1880'> -7.6731314e+01 </wgt>
<wgt id='1881'> -7.6611049e+01 </wgt>
<wgt id='1882'> -7.6689090e+01 </wgt>
<wgt id='1883'> -7.6686875e+01 </wgt>
<wgt id='1884'> -7.6706910e+01 </wgt>
<wgt id='1885'> -7.6798174e+01 </wgt>
<wgt id='1886'> -7.6911072e+01 </wgt>
<wgt id='1887'> -7.6874753e+01 </wgt>
<wgt id='1888'> -7.7138251e+01 </wgt>
<wgt id='1889'> -7.6852754e+01 </wgt>
<wgt id='1890'> -7.6606565e+01 </wgt>
<wgt id='1891'> -7.6720042e+01 </wgt>
<wgt id='1892'> -7.6574605e+01 </wgt>
<wgt id='1893'> -7.6655087e+01 </wgt>
<wgt id='1894'> -7.6675103e+01 </wgt>
<wgt id='1895'> -7.6573193e+01 </wgt>
<wgt id='1896'> -7.6717384e+01 </wgt>
<wgt id='1897'> -7.6733934e+01 </wgt>
<wgt id='1898'> -7.6447937e+01 </wgt>
<wgt id='1899'> -7.6672761e+01 </wgt>
<wgt id='1900'> -7.6504096e+01 </wgt>
<wgt id='1901'> -7.6639718e+01 </wgt>
<wgt id='1902'> -7.6636565e+01 </wgt>
<wgt id='1903'> -7.6845795e+01 </wgt>
<wgt id='1904'> -7.6616539e+01 </wgt>
<wgt id='1905'> -7.6715048e+01 </wgt>
<wgt id='1906'> -7.6635056e+01 </wgt>
<wgt id='1907'> -7.6540314e+01 </wgt>
<wgt id='1908'> -7.6730458e+01 </wgt>
<wgt id='1909'> -7.6641234e+01 </wgt>
<wgt id='1910'> -7.6695097e+01 </wgt>
<wgt id='1911'> -7.6676659e+01 </wgt>
<wgt id='1912'> -7.6621081e+01 </wgt>
<wgt id='1913'> -7.6623231e+01 </wgt>
<wgt id='1914'> -7.6630010e+01 </wgt>
<wgt id='1915'> -7.6567756e+01 </wgt>
<wgt id='1916'> -7.6728544e+01 </wgt>
<wgt id='1917'> -7.6625813e+01 </wgt>
<wgt id='1918'> -7.6672259e+01 </wgt>
<wgt id='1919'> -7.6567826e+01 </wgt>
<wgt id='1920'> -7.6720893e+01 </wgt>
<wgt id='1921'> -7.6681582e+01 </wgt>
<wgt id='1922'> -7.6700607e+01 </wgt>
<wgt id='1923'> -7.6711792e+01 </wgt>
<wgt id='1924'> -7.6696934e+01 </wgt>
<wgt id='1925'> -7.6684652e+01 </wgt>
<wgt id='1926'> -7.6726235e+01 </wgt>
<wgt id='1927'> -7.6666669e+01 </wgt>
<wgt id='1928'> -7.6682620e+01 </wgt>
<wgt id='1929'> -7.6679211e+01 </wgt>
<wgt id='1930'> -7.6647915e+01 </wgt>
<wgt id='1931'> -7.6590046e+01 </wgt>
<wgt id='1932'> -7.6665107e+01 </wgt>
<wgt id='1933'> -7.6655464e+01 </wgt>
<wgt id='1934'> -7.6645841e+01 </wgt>
<wgt id='1935'> -7.6719436e+01 </wgt>
<wgt id='1936'> -7.6634654e+01 </wgt>
<wgt id='1937'> -7.6679355e+01 </wgt>
<wgt id='1938'> -7.6632900e+01 </wgt>
<wgt id='1939'> -7.6658218e+01 </wgt>
<wgt id='1940'> -7.6651579e+01 </wgt>
<wgt id='1941'> -7.6696678e+01 </wgt>
<wgt id='1942'> -7.6616289e+01 </wgt>
<wgt id='1943'> -7.6658583e+01 </wgt>
<wgt id='1944'> -7.6661985e+01 </wgt>
<wgt id='1945'> -7.6684394e+01 </wgt>
<wgt id='1946'> -7.6606571e+01 </wgt>
<wgt id='1947'> -7.6651491e+01 </wgt>
<wgt id='1948'> -7.6625602e+01 </wgt>
<wgt id='1949'> -7.6682440e+01 </wgt>
<wgt id='1950'> -7.6638967e+01 </wgt>
<wgt id='1951'> -7.6628259e+01 </wgt>
<wgt id='1952'> -7.6662582e+01 </wgt>
<wgt id='1953'> -7.6670933e+01 </wgt>
<wgt id='1954'> -7.6650623e+01 </wgt>
<wgt id='1955'> -7.6645666e+01 </wgt>
<wgt id='1956'> -7.6657087e+01 </wgt>
<wgt id='1957'> -7.6659808e+01 </wgt>
<wgt id='1958'> -7.6657952e+01 </wgt>
<wgt id='1959'> -7.6658025e+01 </wgt>
<wgt id='1960'> -7.6658803e+01 </wgt>
<wgt id='1961'> -7.6657697e+01 </wgt>
<wgt id='1962'> -7.6660299e+01 </wgt>
</rwgt>
</event>
<event npLO=" -1 " npNLO=" 0 ">
 6      0 +1.5146096e+02 3.20485850e+01 7.54677110e-03 1.17646430e-01
        3 -1    0    0  501    0 +0.0000000000e+00 +0.0000000000e+00 +2.8444370000e+01 2.8444370000e+01 0.0000000000e+00 0.0000e+00 9.0000e+00
       -3 -1    0    0    0  501 +0.0000000000e+00 +0.0000000000e+00 -7.3945076000e+01 7.3945076000e+01 0.0000000000e+00 0.0000e+00 9.0000e+00
       23  2    1    2    0    0 +0.0000000000e+00 +0.0000000000e+00 -4.5500707000e+01 1.0238945000e+02 9.1723957000e+01 0.0000e+00 0.0000e+00
       11  1    3    3    0    0 -1.8385481000e+01 +7.6342928000e+00 +1.0057448000e+01 2.2303825000e+01 0.0000000000e+00 0.0000e+00 9.0000e+00
      -11  1    3    3    0    0 +3.3769208000e+01 -1.5525166000e+01 -4.9207800000e+01 6.1666828000e+01 0.0000000000e+00 0.0000e+00 9.0000e+00
       22  1    3    3    0    0 -1.5383726000e+01 +7.8908729000e+00 -6.3503551000e+00 1.8418793000e+01 0.0000000000e+00 0.0000e+00 9.0000e+00
#aMCatNLO 1  0  0  2  1 0.21487553E+02 0.00000000E+00 -9  6  0 0.00000000E+00 0.00000000E+00 0.00000000E+00 0.00000000E+00 0.00000000E+00
<rwgt>
<wgt id='1001'> +1.5146000e+02 </wgt>
<wgt id='1002'> +1.5146000e+02 </wgt>
<wgt id='1003'> +1.2792000e+02 </wgt>
<wgt id='1004'> +1.2202000e+02 </wgt>
<wgt id='1005'> +1.0447000e+02 </wgt>
<wgt id='1006'> +1.3155000e+02 </wgt>
<wgt id='1007'> +1.2502000e+02 </wgt>
<wgt id='1008'> +1.6492000e+02 </wgt>
<wgt id='1009'> +1.4112000e+02 </wgt>
<wgt id='1010'> +1.4754000e+02 </wgt>
<wgt id='1011'> +1.5781000e+02 </wgt>
<wgt id='1012'> +2.5400000e+02 </wgt>
<wgt id='1013'> +1.9984000e+02 </wgt>
<wgt id='1014'> +1.4059000e+02 </wgt>
<wgt id='1015'> +1.1896000e+02 </wgt>
<wgt id='1016'> +1.7222000e+02 </wgt>
<wgt id='1017'> +1.6639000e+02 </wgt>
<wgt id='1018'> +1.5632000e+02 </wgt>
<wgt id='1019'> +1.7913000e+02 </wgt>
<wgt id='1020'> +1.6204000e+02 </wgt>
<wgt id='1021'> +1.4200000e+02 </wgt>
<wgt id='1022'> +1.1232000e+02 </wgt>
<wgt id='1023'> +1.2129000e+02 </wgt>
<wgt id='1024'> +1.6466000e+02 </wgt>
<wgt id='1025'> +1.5009000e+02 </wgt>
<wgt id='1026'> +1.1713000e+02 </wgt>
<wgt id='1027'> +1.2721000e+02 </wgt>
<wgt id='1028'> +1.9142000e+02 </wgt>
<wgt id='1029'> +1.2748000e+02 </wgt>
<wgt id='1030'> +1.5564000e+02 </wgt>
<wgt id='1031'> +1.2084000e+02 </wgt>
<wgt id='1032'> +1.2501000e+02 </wgt>
<wgt id='1033'> +1.1211000e+02 </wgt>
<wgt id='1034'> +2.6774000e+02 </wgt>
<wgt id='1035'> +1.5986000e+02 </wgt>
<wgt id='1036'> +1.6916000e+02 </wgt>
<wgt id='1037'> +1.2214000e+02 </wgt>
<wgt id='1038'> +1.2084000e+02 </wgt>
<wgt id='1039'> +1.3940000e+02 </wgt>
<wgt id='1040'> +1.9677000e+02 </wgt>
<wgt id='1041'> +1.4273000e+02 </wgt>
<wgt id='1042'> +1.3436000e+02 </wgt>
<wgt id='1043'> +1.3658000e+02 </wgt>
<wgt id='1044'> +1.4238000e+02 </wgt>
<wgt id='1045'> +1.5183000e+02 </wgt>
<wgt id='1046'> +1.7057000e+02 </wgt>
<wgt id='1047'> +1.6543000e+02 </wgt>
<wgt id='1048'> +1.3554000e+02 </wgt>
<wgt id='1049'> +1.8417000e+02 </wgt>
<wgt id='1050'> +1.5682000e+02 </wgt>
<wgt id='1051'> +1.2850000e+02 </wgt>
<wgt id='1052'> +1.2047000e+02 </wgt>
<wgt id='1053'> +1.5112000e+02 </wgt>
<wgt id='1054'> +1.4934000e+02 </wgt>
<wgt id='1055'> +2.4383000e+02 </wgt>
<wgt id='1056'> +1.5606000e+02 </wgt>
<wgt id='1057'> +1.5493000e+02 </wgt>
<wgt id='1058'> +1.5423000e+02 </wgt>
<wgt id='1059'> +1.0554000e+02 </wgt>
<wgt id='1060'> +1.3240000e+02 </wgt>
<wgt id='1061'> +1.2942000e+02 </wgt>
<wgt id='1062'> +1.4751000e+02 </wgt>
<wgt id='1063'> +1.4552000e+02 </wgt>
<wgt id='1064'> +1.3034000e+02 </wgt>
<wgt id='1065'> +1.4740000e+02 </wgt>
<wgt id='1066'> +1.8841000e+02 </wgt>
<wgt id='1067'> +1.4312000e+02 </wgt>
<wgt id='1068'> +1.4156000e+02 </wgt>
<wgt id='1069'> +2.6186000e+02 </wgt>
<wgt id='1070'> +1.4611000e+02 </wgt>
<wgt id='1071'> +1.8316000e+02 </wgt>
<wgt id='1072'> +1.4716000e+02 </wgt>
<wgt id='1073'> +1.7567000e+02 </wgt>
<wgt id='1074'> +2.3748000e+02 </wgt>
<wgt id='1075'> +2.5427000e+02 </wgt>
<wgt id='1076'> +1.5034000e+02 </wgt>
<wgt id='1077'> +1.2855000e+02 </wgt>
<wgt id='1078'> +2.2498000e+02 </wgt>
<wgt id='1079'> +1.7048000e+02 </wgt>
<wgt id='1080'> +1.5067000e+02 </wgt>
<wgt id='1081'> +1.7804000e+02 </wgt>
<wgt id='1082'> +1.3657000e+02 </wgt>
<wgt id='1083'> +1.5218000e+02 </wgt>
<wgt id='1084'> +1.2766000e+02 </wgt>
<wgt id='1085'> +1.5261000e+02 </wgt>
<wgt id='1086'> +1.3210000e+02 </wgt>
<wgt id='1087'> +1.3949000e+02 </wgt>
<wgt id='1088'> +1.5512000e+02 </wgt>
<wgt id='1089'> +1.5699000e+02 </wgt>
<wgt id='1090'> +1.3039000e+02 </wgt>
<wgt id='1091'> +1.5454000e+02 </wgt>
<wgt id='1092'> +1.3592000e+02 </wgt>
<wgt id='1093'> +1.2900000e+02 </wgt>
<wgt id='1094'> +1.5257000e+02 </wgt>
<wgt id='1095'> +1.4670000e+02 </wgt>
<wgt id='1096'> +1.5220000e+02 </wgt>
<wgt id='1097'> +1.2781000e+02 </wgt>
<wgt id='1098'> +1.8454000e+02 </wgt>
<wgt id='1099'> +1.4863000e+02 </wgt>
<wgt id='1100'> +1.3706000e+02 </wgt>
<wgt id='1101'> +1.1952000e+02 </wgt>
<wgt id='1102'> +1.0828000e+02 </wgt>
<wgt id='1103'> +1.4335000e+02 </wgt>
<wgt id='1104'> +1.5072000e+02 </wgt>
<wgt id='1105'> +1.5146096e+02 </wgt>
<wgt id='1106'> +7.5271036e+01 </wgt>
<wgt id='1107'> +7.6297685e+01 </wgt>
<wgt id='1108'> +8.6481716e+01 </wgt>
<wgt id='1109'> +8.5946164e+01 </wgt>
<wgt id='1110'> +8.7142982e+01 </wgt>
<wgt id='1111'> +6.6734867e+01 </wgt>
<wgt id='1112'> +6.6117530e+01 </wgt>
<wgt id='1113'> +6.7497829e+01 </wgt>
<wgt id='1114'> +9.7974276e+01 </wgt>
<wgt id='1115'> +6.5012326e+01 </wgt>
<wgt id='1116'> +1.0079361e+02 </wgt>
<wgt id='1117'> +1.0496742e+02 </wgt>
<wgt id='1118'> +1.0112546e+02 </wgt>
<wgt id='1119'> +9.7253222e+01 </wgt>
<wgt id='1120'> +6.9061255e+01 </wgt>
<wgt id='1121'> +8.9510541e+01 </wgt>
<wgt id='1122'> +1.2321717e+02 </wgt>
<wgt id='1123'> +9.8448141e+01 </wgt>
<wgt id='1124'> +8.8747151e+01 </wgt>
<wgt id='1125'> +9.3849916e+01 </wgt>
<wgt id='1126'> +1.1582003e+02 </wgt>
<wgt id='1127'> +1.0822497e+02 </wgt>
<wgt id='1128'> +1.0352436e+02 </wgt>
<wgt id='1129'> +9.0093454e+01 </wgt>
<wgt id='1130'> +9.3022596e+01 </wgt>
<wgt id='1131'> +7.4641025e+01 </wgt>
<wgt id='1132'> +1.1118545e+02 </wgt>
<wgt id='1133'> +1.0426017e+02 </wgt>
<wgt id='1134'> +1.1949273e+02 </wgt>
<wgt id='1135'> +9.9849445e+01 </wgt>
<wgt id='1136'> +1.0193442e+02 </wgt>
<wgt id='1137'> +8.8268045e+01 </wgt>
<wgt id='1138'> +1.2463541e+02 </wgt>
<wgt id='1139'> +1.1463590e+02 </wgt>
<wgt id='1140'> +9.0093008e+01 </wgt>
<wgt id='1141'> +8.5845730e+01 </wgt>
<wgt id='1142'> +1.0832419e+02 </wgt>
<wgt id='1143'> +9.3556822e+01 </wgt>
<wgt id='1144'> +7.6644906e+01 </wgt>
<wgt id='1145'> +8.1256102e+01 </wgt>
<wgt id='1146'> +1.0304702e+02 </wgt>
<wgt id='1147'> +9.3887418e+01 </wgt>
<wgt id='1148'> +1.3199395e+02 </wgt>
<wgt id='1149'> +9.2029344e+01 </wgt>
<wgt id='1150'> +1.0405049e+02 </wgt>
<wgt id='1151'> +1.0671919e+02 </wgt>
<wgt id='1152'> +9.9030445e+01 </wgt>
<wgt id='1153'> +9.0549388e+01 </wgt>
<wgt id='1154'> +9.4458592e+01 </wgt>
<wgt id='1155'> +9.8033778e+01 </wgt>
<wgt id='1156'> +9.6819301e+01 </wgt>
<wgt id='1157'> +9.0791685e+01 </wgt>
<wgt id='1158'> +8.1978093e+01 </wgt>
<wgt id='1159'> +1.0217204e+02 </wgt>
<wgt id='1160'> +9.3456089e+01 </wgt>
<wgt id='1161'> +1.0897644e+02 </wgt>
<wgt id='1162'> +1.1104925e+02 </wgt>
<wgt id='1163'> +8.5598594e+01 </wgt>
<wgt id='1164'> +8.8979283e+01 </wgt>
<wgt id='1165'> +1.0623826e+02 </wgt>
<wgt id='1166'> +9.6076593e+01 </wgt>
<wgt id='1167'> +1.0117077e+02 </wgt>
<wgt id='1168'> +8.7360014e+01 </wgt>
<wgt id='1169'> +1.1555936e+02 </wgt>
<wgt id='1170'> +1.0579268e+02 </wgt>
<wgt id='1171'> +1.0129037e+02 </wgt>
<wgt id='1172'> +1.1006600e+02 </wgt>
<wgt id='1173'> +8.6197344e+01 </wgt>
<wgt id='1174'> +8.4716286e+01 </wgt>
<wgt id='1175'> +7.9452815e+01 </wgt>
<wgt id='1176'> +9.9751357e+01 </wgt>
<wgt id='1177'> +1.0343679e+02 </wgt>
<wgt id='1178'> +1.2013507e+02 </wgt>
<wgt id='1179'> +9.0802883e+01 </wgt>
<wgt id='1180'> +9.6914031e+01 </wgt>
<wgt id='1181'> +9.2037211e+01 </wgt>
<wgt id='1182'> +7.8154148e+01 </wgt>
<wgt id='1183'> +1.0081719e+02 </wgt>
<wgt id='1184'> +1.0066136e+02 </wgt>
<wgt id='1185'> +8.6174388e+01 </wgt>
<wgt id='1186'> +8.2936284e+01 </wgt>
<wgt id='1187'> +1.0860236e+02 </wgt>
<wgt id='1188'> +1.0862124e+02 </wgt>
<wgt id='1189'> +1.0225319e+02 </wgt>
<wgt id='1190'> +8.3320904e+01 </wgt>
<wgt id='1191'> +1.0022677e+02 </wgt>
<wgt id='1192'> +9.5989179e+01 </wgt>
<wgt id='1193'> +1.0527986e+02 </wgt>
<wgt id='1194'> +8.8082892e+01 </wgt>
<wgt id='1195'> +1.0947663e+02 </wgt>
<wgt id='1196'> +9.3022596e+01 </wgt>
<wgt id='1197'> +9.4667610e+01 </wgt>
<wgt id='1198'> +1.1370134e+02 </wgt>
<wgt id='1199'> +9.8455805e+01 </wgt>
<wgt id='1200'> +9.5781027e+01 </wgt>
<wgt id='1201'> +1.2701154e+02 </wgt>
<wgt id='1202'> +7.6443148e+01 </wgt>
<wgt id='1203'> +1.0336796e+02 </wgt>
<wgt id='1204'> +1.0539917e+02 </wgt>
<wgt id='1205'> +1.1936660e+02 </wgt>
<wgt id='1206'> +1.1770933e+02 </wgt>
<wgt id='1207'> +9.8583381e+01 </wgt>
<wgt id='1208'> +8.0063998e+01 </wgt>
<wgt id='1209'> +1.1178170e+02 </wgt>
<wgt id='1210'> +1.0595550e+02 </wgt>
<wgt id='1211'> +8.1826429e+01 </wgt>
<wgt id='1212'> +8.9088467e+01 </wgt>
<wgt id='1213'> +1.0228077e+02 </wgt>
<wgt id='1214'> +9.8168534e+01 </wgt>
<wgt id='1215'> +8.1638942e+01 </wgt>
<wgt id='1216'> +9.0472129e+01 </wgt>
<wgt id='1217'> +9.1174295e+01 </wgt>
<wgt id='1218'> +8.9814546e+01 </wgt>
<wgt id='1219'> +8.9655881e+01 </wgt>
<wgt id='1220'> +8.7310333e+01 </wgt>
<wgt id='1221'> +8.8707236e+01 </wgt>
<wgt id='1222'> +9.2277509e+01 </wgt>
<wgt id='1223'> +8.8894123e+01 </wgt>
<wgt id='1224'> +9.1995913e+01 </wgt>
<wgt id='1225'> +8.9549789e+01 </wgt>
<wgt id='1226'> +9.6686463e+01 </wgt>
<wgt id='1227'> +9.1492260e+01 </wgt>
<wgt id='1228'> +8.7258373e+01 </wgt>
<wgt id='1229'> +9.0760915e+01 </wgt>
<wgt id='1230'> +8.6557267e+01 </wgt>
<wgt id='1231'> +9.5221482e+01 </wgt>
<wgt id='1232'> +8.5885534e+01 </wgt>
<wgt id='1233'> +9.0991483e+01 </wgt>
<wgt id='1234'> +8.8078931e+01 </wgt>
<wgt id='1235'> +9.2697873e+01 </wgt>
<wgt id='1236'> +9.4320090e+01 </wgt>
<wgt id='1237'> +8.6862363e+01 </wgt>
<wgt id='1238'> +8.9665315e+01 </wgt>
<wgt id='1239'> +9.0836322e+01 </wgt>
<wgt id='1240'> +9.0054301e+01 </wgt>
<wgt id='1241'> +9.2056672e+01 </wgt>
<wgt id='1242'> +9.0366249e+01 </wgt>
<wgt id='1243'> +9.1813723e+01 </wgt>
<wgt id='1244'> +9.0760088e+01 </wgt>
<wgt id='1245'> +9.1206120e+01 </wgt>
<wgt id='1246'> +9.0169235e+01 </wgt>
<wgt id='1247'> +9.0309785e+01 </wgt>
<wgt id='1248'> +9.0379099e+01 </wgt>
<wgt id='1249'> +8.9754237e+01 </wgt>
<wgt id='1250'> +9.1162462e+01 </wgt>
<wgt id='1251'> +9.0491618e+01 </wgt>
<wgt id='1252'> +8.9848998e+01 </wgt>
<wgt id='1253'> +8.9813492e+01 </wgt>
<wgt id='1254'> +9.0312378e+01 </wgt>
<wgt id='1255'> +8.9924216e+01 </wgt>
<wgt id='1256'> +8.9768035e+01 </wgt>
<wgt id='1257'> +9.0159430e+01 </wgt>
<wgt id='1258'> +8.9986903e+01 </wgt>
<wgt id='1259'> +9.0063671e+01 </wgt>
<wgt id='1260'> +9.0166697e+01 </wgt>
<wgt id='1261'> +9.0245621e+01 </wgt>
<wgt id='1262'> +9.0503632e+01 </wgt>
<wgt id='1263'> +9.0780184e+01 </wgt>
<wgt id='1264'> +9.0777192e+01 </wgt>
<wgt id='1265'> +9.0683984e+01 </wgt>
<wgt id='1266'> +9.0829345e+01 </wgt>
<wgt id='1267'> +9.0515430e+01 </wgt>
<wgt id='1268'> +9.0051143e+01 </wgt>
<wgt id='1269'> +9.0126569e+01 </wgt>
<wgt id='1270'> +9.0750979e+01 </wgt>
<wgt id='1271'> +9.0570723e+01 </wgt>
<wgt id='1272'> +9.0762821e+01 </wgt>
<wgt id='1273'> +9.0574499e+01 </wgt>
<wgt id='1274'> +9.0427637e+01 </wgt>
<wgt id='1275'> +9.0412322e+01 </wgt>
<wgt id='1276'> +9.0382795e+01 </wgt>
<wgt id='1277'> +9.0457556e+01 </wgt>
<wgt id='1278'> +9.0581822e+01 </wgt>
<wgt id='1279'> +9.0292048e+01 </wgt>
<wgt id='1280'> +9.0260403e+01 </wgt>
<wgt id='1281'> +9.0736204e+01 </wgt>
<wgt id='1282'> +9.0292411e+01 </wgt>
<wgt id='1283'> +9.0144283e+01 </wgt>
<wgt id='1284'> +9.0232805e+01 </wgt>
<wgt id='1285'> +9.0503880e+01 </wgt>
<wgt id='1286'> +9.0250589e+01 </wgt>
<wgt id='1287'> +9.0356576e+01 </wgt>
<wgt id='1288'> +9.0486290e+01 </wgt>
<wgt id='1289'> +9.0676762e+01 </wgt>
<wgt id='1290'> +9.0903082e+01 </wgt>
<wgt id='1291'> +9.0408877e+01 </wgt>
<wgt id='1292'> +9.0423794e+01 </wgt>
<wgt id='1293'> +9.0420586e+01 </wgt>
<wgt id='1294'> +9.0089718e+01 </wgt>
<wgt id='1295'> +9.0568753e+01 </wgt>
<wgt id='1296'> +9.0565683e+01 </wgt>
<wgt id='1297'> +9.0178433e+01 </wgt>
<wgt id='1298'> +9.0398698e+01 </wgt>
<wgt id='1299'> +9.0375811e+01 </wgt>
<wgt id='1300'> +9.0371048e+01 </wgt>
<wgt id='1301'> +9.0443871e+01 </wgt>
<wgt id='1302'> +9.0554378e+01 </wgt>
<wgt id='1303'> +9.0393689e+01 </wgt>
<wgt id='1304'> +9.0640285e+01 </wgt>
<wgt id='1305'> +9.0565696e+01 </wgt>
<wgt id='1306'> +9.0311331e+01 </wgt>
<wgt id='1307'> +9.0435561e+01 </wgt>
<wgt id='1308'> +9.0393238e+01 </wgt>
<wgt id='1309'> +9.0336896e+01 </wgt>
<wgt id='1310'> +9.0468347e+01 </wgt>
<wgt id='1311'> +9.0402172e+01 </wgt>
<wgt id='1312'> +9.0441334e+01 </wgt>
<wgt id='1313'> +9.0448078e+01 </wgt>
<wgt id='1314'> +9.0407211e+01 </wgt>
<wgt id='1315'> +9.0382959e+01 </wgt>
<wgt id='1316'> +9.0591153e+01 </wgt>
<wgt id='1317'> +8.7961642e+01 </wgt>
<wgt id='1318'> +9.2332585e+01 </wgt>
<wgt id='1319'> -4.2240975e-02 </wgt>
<wgt id='1320'> +8.1969259e+01 </wgt>
<wgt id='1321'> +8.2439326e+01 </wgt>
<wgt id='1322'> +8.2330284e+01 </wgt>
<wgt id='1323'> +8.5957231e+01 </wgt>
<wgt id='1324'> +8.0541748e+01 </wgt>
<wgt id='1325'> +8.3799976e+01 </wgt>
<wgt id='1326'> +8.0879819e+01 </wgt>
<wgt id='1327'> +8.4518344e+01 </wgt>
<wgt id='1328'> +8.0676595e+01 </wgt>
<wgt id='1329'> +7.9572013e+01 </wgt>
<wgt id='1330'> +8.3972534e+01 </wgt>
<wgt id='1331'> +7.9116116e+01 </wgt>
<wgt id='1332'> +8.4351788e+01 </wgt>
<wgt id='1333'> +8.1444611e+01 </wgt>
<wgt id='1334'> +8.1208789e+01 </wgt>
<wgt id='1335'> +6.4065643e+01 </wgt>
<wgt id='1336'> +1.0310639e+02 </wgt>
<wgt id='1337'> +8.0121001e+01 </wgt>
<wgt id='1338'> +8.4049910e+01 </wgt>
<wgt id='1339'> +8.1087750e+01 </wgt>
<wgt id='1340'> +8.2780524e+01 </wgt>
<wgt id='1341'> +8.0090213e+01 </wgt>
<wgt id='1342'> +8.5474396e+01 </wgt>
<wgt id='1343'> +8.1844380e+01 </wgt>
<wgt id='1344'> +8.1903301e+01 </wgt>
<wgt id='1345'> +8.0591313e+01 </wgt>
<wgt id='1346'> +8.3335821e+01 </wgt>
<wgt id='1347'> +8.2127437e+01 </wgt>
<wgt id='1348'> +8.1601924e+01 </wgt>
<wgt id='1349'> +8.2053370e+01 </wgt>
<wgt id='1350'> +8.1924370e+01 </wgt>
<wgt id='1351'> +8.1980590e+01 </wgt>
<wgt id='1352'> +8.1907623e+01 </wgt>
<wgt id='1353'> +8.2350729e+01 </wgt>
<wgt id='1354'> +8.1011893e+01 </wgt>
<wgt id='1355'> +8.4166103e+01 </wgt>
<wgt id='1356'> +7.9871825e+01 </wgt>
<wgt id='1357'> +8.1831243e+01 </wgt>
<wgt id='1358'> +8.1038608e+01 </wgt>
<wgt id='1359'> +8.1733383e+01 </wgt>
<wgt id='1360'> +7.9275791e+01 </wgt>
<wgt id='1361'> +8.2157225e+01 </wgt>
<wgt id='1362'> +8.1980392e+01 </wgt>
<wgt id='1363'> +8.1505240e+01 </wgt>
<wgt id='1364'> +8.1599750e+01 </wgt>
<wgt id='1365'> +7.8355971e+01 </wgt>
<wgt id='1366'> +8.3246398e+01 </wgt>
<wgt id='1367'> +8.0257658e+01 </wgt>
<wgt id='1368'> +8.3302972e+01 </wgt>
<wgt id='1369'> +8.4169597e+01 </wgt>
<wgt id='1370'> +7.7774590e+01 </wgt>
<wgt id='1371'> +8.0830991e+01 </wgt>
<wgt id='1372'> +8.0714550e+01 </wgt>
<wgt id='1373'> +7.8277432e+01 </wgt>
<wgt id='1374'> +8.1740303e+01 </wgt>
<wgt id='1375'> +9.5439706e+01 </wgt>
<wgt id='1376'> +6.4624377e+01 </wgt>
<wgt id='1377'> +7.9412158e+01 </wgt>
<wgt id='1378'> +8.4072680e+01 </wgt>
<wgt id='1379'> +8.5496198e+01 </wgt>
<wgt id='1380'> +8.2754738e+01 </wgt>
<wgt id='1381'> +8.7453048e+01 </wgt>
<wgt id='1382'> +5.4092950e+01 </wgt>
<wgt id='1383'> +8.3472637e+01 </wgt>
<wgt id='1384'> +9.3041352e+01 </wgt>
<wgt id='1385'> +6.9779601e+01 </wgt>
<wgt id='1386'> +6.9978205e+01 </wgt>
<wgt id='1387'> +6.9554123e+01 </wgt>
<wgt id='1388'> +6.9069308e+01 </wgt>
<wgt id='1389'> +7.0997216e+01 </wgt>
<wgt id='1390'> +7.0019591e+01 </wgt>
<wgt id='1391'> +6.9490773e+01 </wgt>
<wgt id='1392'> +7.0511849e+01 </wgt>
<wgt id='1393'> +6.9269706e+01 </wgt>
<wgt id='1394'> +6.9199997e+01 </wgt>
<wgt id='1395'> +7.0496053e+01 </wgt>
<wgt id='1396'> +6.8923491e+01 </wgt>
<wgt id='1397'> +7.0218434e+01 </wgt>
<wgt id='1398'> +6.9184779e+01 </wgt>
<wgt id='1399'> +7.0208369e+01 </wgt>
<wgt id='1400'> +7.0196708e+01 </wgt>
<wgt id='1401'> +6.9436717e+01 </wgt>
<wgt id='1402'> +6.8940241e+01 </wgt>
<wgt id='1403'> +7.0162018e+01 </wgt>
<wgt id='1404'> +7.1244187e+01 </wgt>
<wgt id='1405'> +6.9056462e+01 </wgt>
<wgt id='1406'> +7.3479201e+01 </wgt>
<wgt id='1407'> +6.3379686e+01 </wgt>
<wgt id='1408'> +7.3786712e+01 </wgt>
<wgt id='1409'> +6.2027905e+01 </wgt>
<wgt id='1410'> +7.0496934e+01 </wgt>
<wgt id='1411'> +6.7941998e+01 </wgt>
<wgt id='1412'> +6.7809766e+01 </wgt>
<wgt id='1413'> +7.2152020e+01 </wgt>
<wgt id='1414'> +6.9423239e+01 </wgt>
<wgt id='1415'> +7.0058705e+01 </wgt>
<wgt id='1416'> +7.0177853e+01 </wgt>
<wgt id='1417'> +6.9538324e+01 </wgt>
<wgt id='1418'> +6.9637308e+01 </wgt>
<wgt id='1419'> +7.0033498e+01 </wgt>
<wgt id='1420'> +6.9665888e+01 </wgt>
<wgt id='1421'> +6.9468354e+01 </wgt>
<wgt id='1422'> +6.7909305e+01 </wgt>
<wgt id='1423'> +7.1756100e+01 </wgt>
<wgt id='1424'> +6.9389996e+01 </wgt>
<wgt id='1425'> +7.0065145e+01 </wgt>
<wgt id='1426'> +6.6694307e+01 </wgt>
<wgt id='1427'> +6.8432389e+01 </wgt>
<wgt id='1428'> +6.7523775e+01 </wgt>
<wgt id='1429'> +7.1133369e+01 </wgt>
<wgt id='1430'> +6.7962150e+01 </wgt>
<wgt id='1431'> +6.6269321e+01 </wgt>
<wgt id='1432'> +6.8352066e+01 </wgt>
<wgt id='1433'> +6.5081877e+01 </wgt>
<wgt id='1434'> +6.8887506e+01 </wgt>
<wgt id='1435'> +7.0018004e+01 </wgt>
<wgt id='1436'> +8.6577600e+01 </wgt>
<wgt id='1437'> +8.6589383e+01 </wgt>
<wgt id='1438'> +8.6615116e+01 </wgt>
<wgt id='1439'> +8.6588035e+01 </wgt>
<wgt id='1440'> +8.6117302e+01 </wgt>
<wgt id='1441'> +8.4944985e+01 </wgt>
<wgt id='1442'> +8.5059544e+01 </wgt>
<wgt id='1443'> +8.6591703e+01 </wgt>
<wgt id='1444'> +8.6453180e+01 </wgt>
<wgt id='1445'> +8.6046927e+01 </wgt>
<wgt id='1446'> +8.7114505e+01 </wgt>
<wgt id='1447'> +8.6501562e+01 </wgt>
<wgt id='1448'> +8.7935005e+01 </wgt>
<wgt id='1449'> +8.6680593e+01 </wgt>
<wgt id='1450'> +8.7987197e+01 </wgt>
<wgt id='1451'> +8.6846390e+01 </wgt>
<wgt id='1452'> +8.6165619e+01 </wgt>
<wgt id='1453'> +8.6376430e+01 </wgt>
<wgt id='1454'> +8.6772051e+01 </wgt>
<wgt id='1455'> +8.6157758e+01 </wgt>
<wgt id='1456'> +8.6587727e+01 </wgt>
<wgt id='1457'> +8.4357110e+01 </wgt>
<wgt id='1458'> +8.8313219e+01 </wgt>
<wgt id='1459'> +8.5727019e+01 </wgt>
<wgt id='1460'> +8.7263578e+01 </wgt>
<wgt id='1461'> +8.7346602e+01 </wgt>
<wgt id='1462'> +8.7118386e+01 </wgt>
<wgt id='1463'> +8.6078549e+01 </wgt>
<wgt id='1464'> +8.7921542e+01 </wgt>
<wgt id='1465'> +1.0185477e+02 </wgt>
<wgt id='1466'> +8.0153894e+01 </wgt>
<wgt id='1467'> +8.0457783e+01 </wgt>
<wgt id='1468'> +8.1565926e+01 </wgt>
<wgt id='1469'> +7.0169533e+01 </wgt>
<wgt id='1470'> +8.3184718e+01 </wgt>
<wgt id='1471'> +8.0012849e+01 </wgt>
<wgt id='1472'> +8.2588439e+01 </wgt>
<wgt id='1473'> +8.0985490e+01 </wgt>
<wgt id='1474'> +8.5370569e+01 </wgt>
<wgt id='1475'> +7.9189152e+01 </wgt>
<wgt id='1476'> +7.6573773e+01 </wgt>
<wgt id='1477'> +8.6716469e+01 </wgt>
<wgt id='1478'> +7.8949607e+01 </wgt>
<wgt id='1479'> +7.8819378e+01 </wgt>
<wgt id='1480'> +8.3189634e+01 </wgt>
<wgt id='1481'> +7.8459546e+01 </wgt>
<wgt id='1482'> +8.3934593e+01 </wgt>
<wgt id='1483'> +7.6507757e+01 </wgt>
<wgt id='1484'> +7.9007622e+01 </wgt>
<wgt id='1485'> +8.0467191e+01 </wgt>
<wgt id='1486'> +8.0756262e+01 </wgt>
<wgt id='1487'> +8.0859727e+01 </wgt>
<wgt id='1488'> +8.0827304e+01 </wgt>
<wgt id='1489'> +7.9646921e+01 </wgt>
<wgt id='1490'> +8.0510406e+01 </wgt>
<wgt id='1491'> +8.1318776e+01 </wgt>
<wgt id='1492'> +7.9491134e+01 </wgt>
<wgt id='1493'> +8.1050191e+01 </wgt>
<wgt id='1494'> +8.0136944e+01 </wgt>
<wgt id='1495'> +7.9646304e+01 </wgt>
<wgt id='1496'> +8.0126809e+01 </wgt>
<wgt id='1497'> +8.0127303e+01 </wgt>
<wgt id='1498'> +8.0431953e+01 </wgt>
<wgt id='1499'> +8.0232578e+01 </wgt>
<wgt id='1500'> +8.0546102e+01 </wgt>
<wgt id='1501'> +8.0484615e+01 </wgt>
<wgt id='1502'> +7.9704869e+01 </wgt>
<wgt id='1503'> +8.0233986e+01 </wgt>
<wgt id='1504'> +8.0029432e+01 </wgt>
<wgt id='1505'> +8.0570599e+01 </wgt>
<wgt id='1506'> +8.0448262e+01 </wgt>
<wgt id='1507'> +7.9747432e+01 </wgt>
<wgt id='1508'> +8.0209300e+01 </wgt>
<wgt id='1509'> +7.9987857e+01 </wgt>
<wgt id='1510'> +8.0050267e+01 </wgt>
<wgt id='1511'> +8.0334266e+01 </wgt>
<wgt id='1512'> +7.9971820e+01 </wgt>
<wgt id='1513'> +7.9956062e+01 </wgt>
<wgt id='1514'> +8.0259504e+01 </wgt>
<wgt id='1515'> +8.0079275e+01 </wgt>
<wgt id='1516'> +8.0025903e+01 </wgt>
<wgt id='1517'> +8.0316562e+01 </wgt>
<wgt id='1518'> +8.0178149e+01 </wgt>
<wgt id='1519'> +7.9834161e+01 </wgt>
<wgt id='1520'> +8.0394110e+01 </wgt>
<wgt id='1521'> +8.0445413e+01 </wgt>
<wgt id='1522'> +7.9984207e+01 </wgt>
<wgt id='1523'> +8.0125468e+01 </wgt>
<wgt id='1524'> +8.0243376e+01 </wgt>
<wgt id='1525'> +8.0306247e+01 </wgt>
<wgt id='1526'> +7.9952420e+01 </wgt>
<wgt id='1527'> +8.0052575e+01 </wgt>
<wgt id='1528'> +8.0099618e+01 </wgt>
<wgt id='1529'> +8.0119352e+01 </wgt>
<wgt id='1530'> +8.0073425e+01 </wgt>
<wgt id='1531'> +8.0095329e+01 </wgt>
<wgt id='1532'> +8.0236601e+01 </wgt>
<wgt id='1533'> +8.0260127e+01 </wgt>
<wgt id='1534'> +8.0117005e+01 </wgt>
<wgt id='1535'> +8.0300962e+01 </wgt>
<wgt id='1536'> +8.0270136e+01 </wgt>
<wgt id='1537'> +8.0090430e+01 </wgt>
<wgt id='1538'> +8.0219959e+01 </wgt>
<wgt id='1539'> +8.0189856e+01 </wgt>
<wgt id='1540'> +8.0161174e+01 </wgt>
<wgt id='1541'> +8.0143187e+01 </wgt>
<wgt id='1542'> +8.0143820e+01 </wgt>
<wgt id='1543'> +8.0136676e+01 </wgt>
<wgt id='1544'> +8.0105923e+01 </wgt>
<wgt id='1545'> +8.0122205e+01 </wgt>
<wgt id='1546'> +8.0184234e+01 </wgt>
<wgt id='1547'> +8.0165379e+01 </wgt>
<wgt id='1548'> +8.0092363e+01 </wgt>
<wgt id='1549'> +8.0169639e+01 </wgt>
<wgt id='1550'> +8.0258323e+01 </wgt>
<wgt id='1551'> +8.0131820e+01 </wgt>
<wgt id='1552'> +8.0100373e+01 </wgt>
<wgt id='1553'> +8.0126156e+01 </wgt>
<wgt id='1554'> +8.0157462e+01 </wgt>
<wgt id='1555'> +8.0202386e+01 </wgt>
<wgt id='1556'> +8.0158249e+01 </wgt>
<wgt id='1557'> +8.0136956e+01 </wgt>
<wgt id='1558'> +8.0239459e+01 </wgt>
<wgt id='1559'> +8.0147215e+01 </wgt>
<wgt id='1560'> +8.0170865e+01 </wgt>
<wgt id='1561'> +8.0164234e+01 </wgt>
<wgt id='1562'> +8.0118894e+01 </wgt>
<wgt id='1563'> +8.0153851e+01 </wgt>
<wgt id='1564'> +8.0124590e+01 </wgt>
<wgt id='1565'> +8.0184829e+01 </wgt>
<wgt id='1566'> +8.0150385e+01 </wgt>
<wgt id='1567'> +7.8433729e+01 </wgt>
<wgt id='1568'> +8.2587274e+01 </wgt>
<wgt id='1569'> +8.6677470e+01 </wgt>
<wgt id='1570'> +8.8791710e+01 </wgt>
<wgt id='1571'> +8.7265470e+01 </wgt>
<wgt id='1572'> +8.5236210e+01 </wgt>
<wgt id='1573'> +8.1324207e+01 </wgt>
<wgt id='1574'> +7.9660649e+01 </wgt>
<wgt id='1575'> +8.2453539e+01 </wgt>
<wgt id='1576'> +8.5156290e+01 </wgt>
<wgt id='1577'> +8.7205283e+01 </wgt>
<wgt id='1578'> +8.5353464e+01 </wgt>
<wgt id='1579'> +9.0905566e+01 </wgt>
<wgt id='1580'> +7.6443442e+01 </wgt>
<wgt id='1581'> +8.3680480e+01 </wgt>
<wgt id='1582'> +8.3988655e+01 </wgt>
<wgt id='1583'> +8.6187066e+01 </wgt>
<wgt id='1584'> +8.6738133e+01 </wgt>
<wgt id='1585'> +8.5331297e+01 </wgt>
<wgt id='1586'> +9.0357359e+01 </wgt>
<wgt id='1587'> +8.2679260e+01 </wgt>
<wgt id='1588'> +8.8331328e+01 </wgt>
<wgt id='1589'> +8.8089740e+01 </wgt>
<wgt id='1590'> +8.7440314e+01 </wgt>
<wgt id='1591'> +8.7876379e+01 </wgt>
<wgt id='1592'> +8.8171637e+01 </wgt>
<wgt id='1593'> +8.5862525e+01 </wgt>
<wgt id='1594'> +8.6890392e+01 </wgt>
<wgt id='1595'> +8.5547901e+01 </wgt>
<wgt id='1596'> +8.7107039e+01 </wgt>
<wgt id='1597'> +8.7150639e+01 </wgt>
<wgt id='1598'> +8.6135239e+01 </wgt>
<wgt id='1599'> +8.6804055e+01 </wgt>
<wgt id='1600'> +8.6332215e+01 </wgt>
<wgt id='1601'> +8.7521537e+01 </wgt>
<wgt id='1602'> +8.6301721e+01 </wgt>
<wgt id='1603'> +8.7136670e+01 </wgt>
<wgt id='1604'> +8.7581495e+01 </wgt>
<wgt id='1605'> +8.6653255e+01 </wgt>
<wgt id='1606'> +8.6235792e+01 </wgt>
<wgt id='1607'> +8.6788276e+01 </wgt>
<wgt id='1608'> +8.6883540e+01 </wgt>
<wgt id='1609'> +8.5969570e+01 </wgt>
<wgt id='1610'> +8.6698964e+01 </wgt>
<wgt id='1611'> +8.6553821e+01 </wgt>
<wgt id='1612'> +8.6393273e+01 </wgt>
<wgt id='1613'> +8.6625096e+01 </wgt>
<wgt id='1614'> +8.6706815e+01 </wgt>
<wgt id='1615'> +8.6763331e+01 </wgt>
<wgt id='1616'> +8.6506717e+01 </wgt>
<wgt id='1617'> +8.6845641e+01 </wgt>
<wgt id='1618'> +8.6467724e+01 </wgt>
<wgt id='1619'> +8.6385727e+01 </wgt>
<wgt id='1620'> +8.6501155e+01 </wgt>
<wgt id='1621'> +8.6976216e+01 </wgt>
<wgt id='1622'> +8.6768729e+01 </wgt>
<wgt id='1623'> +8.6505899e+01 </wgt>
<wgt id='1624'> +8.6694161e+01 </wgt>
<wgt id='1625'> +8.6664249e+01 </wgt>
<wgt id='1626'> +8.6867259e+01 </wgt>
<wgt id='1627'> +8.6586343e+01 </wgt>
<wgt id='1628'> +8.6538351e+01 </wgt>
<wgt id='1629'> +8.6739026e+01 </wgt>
<wgt id='1630'> +8.6676459e+01 </wgt>
<wgt id='1631'> +8.6428508e+01 </wgt>
<wgt id='1632'> +8.6652997e+01 </wgt>
<wgt id='1633'> +8.6596079e+01 </wgt>
<wgt id='1634'> +8.6606427e+01 </wgt>
<wgt id='1635'> +8.6791214e+01 </wgt>
<wgt id='1636'> +8.6714377e+01 </wgt>
<wgt id='1637'> +8.6747791e+01 </wgt>
<wgt id='1638'> +8.6685480e+01 </wgt>
<wgt id='1639'> +8.6625207e+01 </wgt>
<wgt id='1640'> +8.6732885e+01 </wgt>
<wgt id='1641'> +8.6677482e+01 </wgt>
<wgt id='1642'> +8.6747059e+01 </wgt>
<wgt id='1643'> +8.6657099e+01 </wgt>
<wgt id='1644'> +8.6624616e+01 </wgt>
<wgt id='1645'> +8.6647419e+01 </wgt>
<wgt id='1646'> +8.6709068e+01 </wgt>
<wgt id='1647'> +8.6767603e+01 </wgt>
<wgt id='1648'> +8.6673707e+01 </wgt>
<wgt id='1649'> +8.6730996e+01 </wgt>
<wgt id='1650'> +8.6605156e+01 </wgt>
<wgt id='1651'> +8.6685964e+01 </wgt>
<wgt id='1652'> +8.6610773e+01 </wgt>
<wgt id='1653'> +8.6613577e+01 </wgt>
<wgt id='1654'> +8.6708293e+01 </wgt>
<wgt id='1655'> +8.6682513e+01 </wgt>
<wgt id='1656'> +8.6665940e+01 </wgt>
<wgt id='1657'> +8.6657249e+01 </wgt>
<wgt id='1658'> +8.6687392e+01 </wgt>
<wgt id='1659'> +8.6731690e+01 </wgt>
<wgt id='1660'> +8.6700098e+01 </wgt>
<wgt id='1661'> +8.6736771e+01 </wgt>
<wgt id='1662'> +8.6673878e+01 </wgt>
<wgt id='1663'> +8.6714614e+01 </wgt>
<wgt id='1664'> +8.6709250e+01 </wgt>
<wgt id='1665'> +8.6681992e+01 </wgt>
<wgt id='1666'> +8.6699545e+01 </wgt>
<wgt id='1667'> +8.6690233e+01 </wgt>
<wgt id='1668'> +8.6693089e+01 </wgt>
<wgt id='1669'> +8.6669762e+01 </wgt>
<wgt id='1670'> +8.3985439e+01 </wgt>
<wgt id='1671'> +8.7905302e+01 </wgt>
<wgt id='1672'> +8.0149418e+01 </wgt>
<wgt id='1673'> +7.7630645e+01 </wgt>
<wgt id='1674'> +8.9333115e+01 </wgt>
<wgt id='1675'> +8.0084599e+01 </wgt>
<wgt id='1676'> +8.0390800e+01 </wgt>
<wgt id='1677'> +7.9294096e+01 </wgt>
<wgt id='1678'> +8.1450760e+01 </wgt>
<wgt id='1679'> +7.9803032e+01 </wgt>
<wgt id='1680'> +8.0395261e+01 </wgt>
<wgt id='1681'> +7.7211247e+01 </wgt>
<wgt id='1682'> +8.0201970e+01 </wgt>
<wgt id='1683'> +8.9236740e+01 </wgt>
<wgt id='1684'> +8.0045114e+01 </wgt>
<wgt id='1685'> +7.9576229e+01 </wgt>
<wgt id='1686'> +8.3505342e+01 </wgt>
<wgt id='1687'> +8.0878183e+01 </wgt>
<wgt id='1688'> +8.0769205e+01 </wgt>
<wgt id='1689'> +7.9469337e+01 </wgt>
<wgt id='1690'> +7.9729377e+01 </wgt>
<wgt id='1691'> +8.0778508e+01 </wgt>
<wgt id='1692'> +7.9135898e+01 </wgt>
<wgt id='1693'> +8.0964506e+01 </wgt>
<wgt id='1694'> +7.9425709e+01 </wgt>
<wgt id='1695'> +7.9645743e+01 </wgt>
<wgt id='1696'> +7.9995364e+01 </wgt>
<wgt id='1697'> +8.0327395e+01 </wgt>
<wgt id='1698'> +7.7863840e+01 </wgt>
<wgt id='1699'> +8.0280952e+01 </wgt>
<wgt id='1700'> +7.9367381e+01 </wgt>
<wgt id='1701'> +8.2467440e+01 </wgt>
<wgt id='1702'> +7.9798143e+01 </wgt>
<wgt id='1703'> +7.8433729e+01 </wgt>
<wgt id='1704'> +8.2587274e+01 </wgt>
<wgt id='1705'> +8.6672736e+01 </wgt>
<wgt id='1706'> +9.3320034e+01 </wgt>
<wgt id='1707'> +8.0768628e+01 </wgt>
<wgt id='1708'> +8.6901051e+01 </wgt>
<wgt id='1709'> +9.4118186e+01 </wgt>
<wgt id='1710'> +8.5804855e+01 </wgt>
<wgt id='1711'> +8.7091676e+01 </wgt>
<wgt id='1712'> +8.7130563e+01 </wgt>
<wgt id='1713'> +8.8424034e+01 </wgt>
<wgt id='1714'> +9.0879089e+01 </wgt>
<wgt id='1715'> +8.8160599e+01 </wgt>
<wgt id='1716'> +8.1876831e+01 </wgt>
<wgt id='1717'> +8.5631589e+01 </wgt>
<wgt id='1718'> +8.6216691e+01 </wgt>
<wgt id='1719'> +8.7636401e+01 </wgt>
<wgt id='1720'> +8.7553182e+01 </wgt>
<wgt id='1721'> +8.7171256e+01 </wgt>
<wgt id='1722'> +8.6804622e+01 </wgt>
<wgt id='1723'> +8.7015104e+01 </wgt>
<wgt id='1724'> +8.8354846e+01 </wgt>
<wgt id='1725'> +8.4565433e+01 </wgt>
<wgt id='1726'> +8.5641629e+01 </wgt>
<wgt id='1727'> +8.4098852e+01 </wgt>
<wgt id='1728'> +8.6316742e+01 </wgt>
<wgt id='1729'> +8.5432771e+01 </wgt>
<wgt id='1730'> +8.8397866e+01 </wgt>
<wgt id='1731'> +8.7185233e+01 </wgt>
<wgt id='1732'> +8.4602043e+01 </wgt>
<wgt id='1733'> +8.4903049e+01 </wgt>
<wgt id='1734'> +8.8471669e+01 </wgt>
<wgt id='1735'> +8.3241351e+01 </wgt>
<wgt id='1736'> +8.3985439e+01 </wgt>
<wgt id='1737'> +8.7905302e+01 </wgt>
<wgt id='1738'> +9.3596014e+01 </wgt>
<wgt id='1739'> +9.3793587e+01 </wgt>
<wgt id='1740'> +9.3399819e+01 </wgt>
<wgt id='1741'> +9.3610979e+01 </wgt>
<wgt id='1742'> +9.3580922e+01 </wgt>
<wgt id='1743'> +9.3776747e+01 </wgt>
<wgt id='1744'> +9.3415520e+01 </wgt>
<wgt id='1745'> +9.3350201e+01 </wgt>
<wgt id='1746'> +9.3829333e+01 </wgt>
<wgt id='1747'> +9.4083002e+01 </wgt>
<wgt id='1748'> +9.3110618e+01 </wgt>
<wgt id='1749'> +9.3980845e+01 </wgt>
<wgt id='1750'> +9.3191511e+01 </wgt>
<wgt id='1751'> +9.3447056e+01 </wgt>
<wgt id='1752'> +9.3743309e+01 </wgt>
<wgt id='1753'> +9.3386155e+01 </wgt>
<wgt id='1754'> +9.3742456e+01 </wgt>
<wgt id='1755'> +9.3258346e+01 </wgt>
<wgt id='1756'> +9.3790489e+01 </wgt>
<wgt id='1757'> +9.3246214e+01 </wgt>
<wgt id='1758'> +9.3976642e+01 </wgt>
<wgt id='1759'> +9.3437620e+01 </wgt>
<wgt id='1760'> +9.3609284e+01 </wgt>
<wgt id='1761'> +9.3393892e+01 </wgt>
<wgt id='1762'> +9.3284576e+01 </wgt>
<wgt id='1763'> +9.4096867e+01 </wgt>
<wgt id='1764'> +9.3238902e+01 </wgt>
<wgt id='1765'> +9.3593507e+01 </wgt>
<wgt id='1766'> +9.3653363e+01 </wgt>
<wgt id='1767'> +9.3596014e+01 </wgt>
<wgt id='1768'> +7.6791847e+01 </wgt>
<wgt id='1769'> +1.1636593e+02 </wgt>
<wgt id='1770'> +7.2418792e+01 </wgt>
<wgt id='1771'> +1.0484317e+02 </wgt>
<wgt id='1772'> +9.4118591e+01 </wgt>
<wgt id='1773'> +9.3480788e+01 </wgt>
<wgt id='1774'> +9.3391746e+01 </wgt>
<wgt id='1775'> +9.3782740e+01 </wgt>
<wgt id='1776'> +9.2348724e+01 </wgt>
<wgt id='1777'> +9.4800571e+01 </wgt>
<wgt id='1778'> +9.4461172e+01 </wgt>
<wgt id='1779'> +9.3952770e+01 </wgt>
<wgt id='1780'> +9.0418636e+01 </wgt>
<wgt id='1781'> +9.9504804e+01 </wgt>
<wgt id='1782'> +9.9775407e+01 </wgt>
<wgt id='1783'> +9.9251317e+01 </wgt>
<wgt id='1784'> +9.9386858e+01 </wgt>
<wgt id='1785'> +9.9638526e+01 </wgt>
<wgt id='1786'> +9.9647508e+01 </wgt>
<wgt id='1787'> +9.9377962e+01 </wgt>
<wgt id='1788'> +9.9097472e+01 </wgt>
<wgt id='1789'> +9.9905425e+01 </wgt>
<wgt id='1790'> +1.0003198e+02 </wgt>
<wgt id='1791'> +9.8987760e+01 </wgt>
<wgt id='1792'> +9.9588255e+01 </wgt>
<wgt id='1793'> +9.9436403e+01 </wgt>
<wgt id='1794'> +9.9248828e+01 </wgt>
<wgt id='1795'> +9.9779541e+01 </wgt>
<wgt id='1796'> +9.9365535e+01 </wgt>
<wgt id='1797'> +9.9692584e+01 </wgt>
<wgt id='1798'> +9.9678250e+01 </wgt>
<wgt id='1799'> +9.9318808e+01 </wgt>
<wgt id='1800'> +9.9248809e+01 </wgt>
<wgt id='1801'> +9.9764836e+01 </wgt>
<wgt id='1802'> +9.9058861e+01 </wgt>
<wgt id='1803'> +9.9790509e+01 </wgt>
<wgt id='1804'> +1.0037909e+02 </wgt>
<wgt id='1805'> +9.8630671e+01 </wgt>
<wgt id='1806'> +1.0017273e+02 </wgt>
<wgt id='1807'> +9.8607251e+01 </wgt>
<wgt id='1808'> +1.0023457e+02 </wgt>
<wgt id='1809'> +9.8924767e+01 </wgt>
<wgt id='1810'> +9.9504967e+01 </wgt>
<wgt id='1811'> +7.9885804e+01 </wgt>
<wgt id='1812'> +1.2646584e+02 </wgt>
<wgt id='1813'> +7.4961862e+01 </wgt>
<wgt id='1814'> +1.1306143e+02 </wgt>
<wgt id='1815'> +1.0173448e+02 </wgt>
<wgt id='1816'> +9.8197577e+01 </wgt>
<wgt id='1817'> +9.9225923e+01 </wgt>
<wgt id='1818'> +9.9689915e+01 </wgt>
<wgt id='1819'> +9.9599925e+01 </wgt>
<wgt id='1820'> +1.0240202e+02 </wgt>
<wgt id='1821'> +1.0052557e+02 </wgt>
<wgt id='1822'> +9.8989531e+01 </wgt>
<wgt id='1823'> +9.7608241e+01 </wgt>
<wgt id='1824'> +8.1143184e+01 </wgt>
<wgt id='1825'> +8.1108851e+01 </wgt>
<wgt id='1826'> +8.1074842e+01 </wgt>
<wgt id='1827'> +8.1040827e+01 </wgt>
<wgt id='1828'> +8.1005954e+01 </wgt>
<wgt id='1829'> +8.0971747e+01 </wgt>
<wgt id='1830'> +8.0937840e+01 </wgt>
<wgt id='1831'> +8.0903725e+01 </wgt>
<wgt id='1832'> +8.0869791e+01 </wgt>
<wgt id='1833'> +8.0835501e+01 </wgt>
<wgt id='1834'> +8.0801293e+01 </wgt>
<wgt id='1835'> +8.0766808e+01 </wgt>
<wgt id='1836'> +8.0732883e+01 </wgt>
<wgt id='1837'> +8.0698628e+01 </wgt>
<wgt id='1838'> +8.0664789e+01 </wgt>
<wgt id='1839'> +8.0630570e+01 </wgt>
<wgt id='1840'> +8.0596512e+01 </wgt>
<wgt id='1841'> +8.0562472e+01 </wgt>
<wgt id='1842'> +8.0528428e+01 </wgt>
<wgt id='1843'> +8.0493721e+01 </wgt>
<wgt id='1844'> +8.0459719e+01 </wgt>
<wgt id='1845'> +8.0426016e+01 </wgt>
<wgt id='1846'> +8.0391661e+01 </wgt>
<wgt id='1847'> +8.0358014e+01 </wgt>
<wgt id='1848'> +8.0323670e+01 </wgt>
<wgt id='1849'> +8.0289735e+01 </wgt>
<wgt id='1850'> +8.0256073e+01 </wgt>
<wgt id='1851'> +8.0221497e+01 </wgt>
<wgt id='1852'> +8.0187639e+01 </wgt>
<wgt id='1853'> +8.0153379e+01 </wgt>
<wgt id='1854'> +8.0119216e+01 </wgt>
<wgt id='1855'> +8.6351347e+01 </wgt>
<wgt id='1856'> +8.8419080e+01 </wgt>
<wgt id='1857'> +8.6932947e+01 </wgt>
<wgt id='1858'> +8.4910877e+01 </wgt>
<wgt id='1859'> +8.1000353e+01 </wgt>
<wgt id='1860'> +7.9345163e+01 </wgt>
<wgt id='1861'> +8.2167165e+01 </wgt>
<wgt id='1862'> +8.4866799e+01 </wgt>
<wgt id='1863'> +8.6880876e+01 </wgt>
<wgt id='1864'> +8.5026088e+01 </wgt>
<wgt id='1865'> +9.0556171e+01 </wgt>
<wgt id='1866'> +7.6181062e+01 </wgt>
<wgt id='1867'> +8.3382415e+01 </wgt>
<wgt id='1868'> +8.3675309e+01 </wgt>
<wgt id='1869'> +8.5864164e+01 </wgt>
<wgt id='1870'> +8.6364579e+01 </wgt>
<wgt id='1871'> +8.5053956e+01 </wgt>
<wgt id='1872'> +9.0005128e+01 </wgt>
<wgt id='1873'> +8.2352609e+01 </wgt>
<wgt id='1874'> +8.8029432e+01 </wgt>
<wgt id='1875'> +8.7791704e+01 </wgt>
<wgt id='1876'> +8.7101331e+01 </wgt>
<wgt id='1877'> +8.7538461e+01 </wgt>
<wgt id='1878'> +8.7856069e+01 </wgt>
<wgt id='1879'> +8.5523189e+01 </wgt>
<wgt id='1880'> +8.6536271e+01 </wgt>
<wgt id='1881'> +8.5191836e+01 </wgt>
<wgt id='1882'> +8.6816339e+01 </wgt>
<wgt id='1883'> +8.6835153e+01 </wgt>
<wgt id='1884'> +8.5789742e+01 </wgt>
<wgt id='1885'> +8.6464009e+01 </wgt>
<wgt id='1886'> +8.6040716e+01 </wgt>
<wgt id='1887'> +8.7182362e+01 </wgt>
<wgt id='1888'> +8.5961007e+01 </wgt>
<wgt id='1889'> +8.6812439e+01 </wgt>
<wgt id='1890'> +8.7247198e+01 </wgt>
<wgt id='1891'> +8.6327721e+01 </wgt>
<wgt id='1892'> +8.5905144e+01 </wgt>
<wgt id='1893'> +8.6459983e+01 </wgt>
<wgt id='1894'> +8.6546135e+01 </wgt>
<wgt id='1895'> +8.5648364e+01 </wgt>
<wgt id='1896'> +8.6370789e+01 </wgt>
<wgt id='1897'> +8.6228987e+01 </wgt>
<wgt id='1898'> +8.6089674e+01 </wgt>
<wgt id='1899'> +8.6291885e+01 </wgt>
<wgt id='1900'> +8.6379216e+01 </wgt>
<wgt id='1901'> +8.6445349e+01 </wgt>
<wgt id='1902'> +8.6181678e+01 </wgt>
<wgt id='1903'> +8.6525158e+01 </wgt>
<wgt id='1904'> +8.6137056e+01 </wgt>
<wgt id='1905'> +8.6066225e+01 </wgt>
<wgt id='1906'> +8.6171494e+01 </wgt>
<wgt id='1907'> +8.6654793e+01 </wgt>
<wgt id='1908'> +8.6441057e+01 </wgt>
<wgt id='1909'> +8.6175365e+01 </wgt>
<wgt id='1910'> +8.6368362e+01 </wgt>
<wgt id='1911'> +8.6329925e+01 </wgt>
<wgt id='1912'> +8.6549850e+01 </wgt>
<wgt id='1913'> +8.6266996e+01 </wgt>
<wgt id='1914'> +8.6215401e+01 </wgt>
<wgt id='1915'> +8.6425009e+01 </wgt>
<wgt id='1916'> +8.6354390e+01 </wgt>
<wgt id='1917'> +8.6088215e+01 </wgt>
<wgt id='1918'> +8.6318172e+01 </wgt>
<wgt id='1919'> +8.6270539e+01 </wgt>
<wgt id='1920'> +8.6272701e+01 </wgt>
<wgt id='1921'> +8.6466840e+01 </wgt>
<wgt id='1922'> +8.6380931e+01 </wgt>
<wgt id='1923'> +8.6429384e+01 </wgt>
<wgt id='1924'> +8.6362755e+01 </wgt>
<wgt id='1925'> +8.6302341e+01 </wgt>
<wgt id='1926'> +8.6404347e+01 </wgt>
<wgt id='1927'> +8.6349769e+01 </wgt>
<wgt id='1928'> +8.6417269e+01 </wgt>
<wgt id='1929'> +8.6331173e+01 </wgt>
<wgt id='1930'> +8.6297060e+01 </wgt>
<wgt id='1931'> +8.6324808e+01 </wgt>
<wgt id='1932'> +8.6379538e+01 </wgt>
<wgt id='1933'> +8.6443520e+01 </wgt>
<wgt id='1934'> +8.6350328e+01 </wgt>
<wgt id='1935'> +8.6398180e+01 </wgt>
<wgt id='1936'> +8.6288571e+01 </wgt>
<wgt id='1937'> +8.6356035e+01 </wgt>
<wgt id='1938'> +8.6280840e+01 </wgt>
<wgt id='1939'> +8.6286441e+01 </wgt>
<wgt id='1940'> +8.6382358e+01 </wgt>
<wgt id='1941'> +8.6365643e+01 </wgt>
<wgt id='1942'> +8.6336231e+01 </wgt>
<wgt id='1943'> +8.6328886e+01 </wgt>
<wgt id='1944'> +8.6358032e+01 </wgt>
<wgt id='1945'> +8.6404503e+01 </wgt>
<wgt id='1946'> +8.6372077e+01 </wgt>
<wgt id='1947'> +8.6408514e+01 </wgt>
<wgt id='1948'> +8.6350868e+01 </wgt>
<wgt id='1949'> +8.6385587e+01 </wgt>
<wgt id='1950'> +8.6379563e+01 </wgt>
<wgt id='1951'> +8.6360929e+01 </wgt>
<wgt id='1952'> +8.6373947e+01 </wgt>
<wgt id='1953'> +8.6362255e+01 </wgt>
<wgt id='1954'> +8.6371423e+01 </wgt>
<wgt id='1955'> +8.6347839e+01 </wgt>
<wgt id='1956'> +8.6351148e+01 </wgt>
<wgt id='1957'> +8.6352366e+01 </wgt>
<wgt id='1958'> +8.6351535e+01 </wgt>
<wgt id='1959'> +8.6351580e+01 </wgt>
<wgt id='1960'> +8.6351918e+01 </wgt>
<wgt id='1961'> +8.6351428e+01 </wgt>
<wgt id='1962'> +8.6352527e+01 </wgt>
</rwgt>
</event>
<event npLO=" -1 " npNLO=" 0 ">
 6      0 +1.5146096e+02 4.26931680e+01 7.54677110e-03 1.16897590e-01
        2 -1    0    0  501    0 +0.0000000000e+00 +0.0000000000e+00 +4.1186956000e+01 4.1186956000e+01 0.0000000000e+00 0.0000e+00 9.0000e+00
       -2 -1    0    0    0  501 +0.0000000000e+00 +0.0000000000e+00 -5.0626653000e+01 5.0626653000e+01 0.0000000000e+00 0.0000e+00 9.0000e+00
       23  2    1    2    0    0 +7.1054274000e-15 -8.8817842000e-16 -9.4396968000e+00 9.1813609000e+01 9.1327055000e+01 0.0000e+00 0.0000e+00
       11  1    3    3    0    0 -1.6989853000e+01 +1.0371543000e+00 +2.1658095000e+00 1.7158716000e+01 0.0000000000e+00 0.0000e+00 9.0000e+00
      -11  1    3    3    0    0 +4.2130692000e+01 -6.5224113000e+00 -2.0661652000e+01 4.7375531000e+01 0.0000000000e+00 0.0000e+00 9.0000e+00
       22  1    3    3    0    0 -2.5140839000e+01 +5.4852570000e+00 +9.0561459000e+00 2.7279363000e+01 0.0000000000e+00 0.0000e+00 9.0000e+00
#aMCatNLO 1  0  0  1  2 0.56051757E+02 0.00000000E+00 -9  6  0 0.00000000E+00 0.00000000E+00 0.00000000E+00 0.00000000E+00 0.00000000E+00
<rwgt>
<wgt id='1001'> +1.5146000e+02 </wgt>
<wgt id='1002'> +1.5146000e+02 </wgt>
<wgt id='1003'> +1.4075000e+02 </wgt>
<wgt id='1004'> +1.5325000e+02 </wgt>
<wgt id='1005'> +1.6078000e+02 </wgt>
<wgt id='1006'> +1.5581000e+02 </wgt>
<wgt id='1007'> +1.4202000e+02 </wgt>
<wgt id='1008'> +1.5213000e+02 </wgt>
<wgt id='1009'> +1.5340000e+02 </wgt>
<wgt id='1010'> +1.4713000e+02 </wgt>
<wgt id='1011'> +1.5137000e+02 </wgt>
<wgt id='1012'> +1.4311000e+02 </wgt>
<wgt id='1013'> +1.4488000e+02 </wgt>
<wgt id='1014'> +1.5253000e+02 </wgt>
<wgt id='1015'> +1.5826000e+02 </wgt>
<wgt id='1016'> +1.5125000e+02 </wgt>
<wgt id='1017'> +1.4996000e+02 </wgt>
<wgt id='1018'> +1.4994000e+02 </wgt>
<wgt id='1019'> +1.4920000e+02 </wgt>
<wgt id='1020'> +1.4602000e+02 </wgt>
<wgt id='1021'> +1.5155000e+02 </wgt>
<wgt id='1022'> +1.5468000e+02 </wgt>
<wgt id='1023'> +1.5688000e+02 </wgt>
<wgt id='1024'> +1.4809000e+02 </wgt>
<wgt id='1025'> +1.5710000e+02 </wgt>
<wgt id='1026'> +1.6008000e+02 </wgt>
<wgt id='1027'> +1.5449000e+02 </wgt>
<wgt id='1028'> +1.4989000e+02 </wgt>
<wgt id='1029'> +1.5267000e+02 </wgt>
<wgt id='1030'> +1.5246000e+02 </wgt>
<wgt id='1031'> +1.5377000e+02 </wgt>
<wgt id='1032'> +1.5402000e+02 </wgt>
<wgt id='1033'> +1.5783000e+02 </wgt>
<wgt id='1034'> +1.4383000e+02 </wgt>
<wgt id='1035'> +1.5182000e+02 </wgt>
<wgt id='1036'> +1.5221000e+02 </wgt>
<wgt id='1037'> +1.5735000e+02 </wgt>
<wgt id='1038'> +1.5376000e+02 </wgt>
<wgt id='1039'> +1.5126000e+02 </wgt>
<wgt id='1040'> +1.4033000e+02 </wgt>
<wgt id='1041'> +1.5174000e+02 </wgt>
<wgt id='1042'> +1.5374000e+02 </wgt>
<wgt id='1043'> +1.5289000e+02 </wgt>
<wgt id='1044'> +1.5379000e+02 </wgt>
<wgt id='1045'> +1.5357000e+02 </wgt>
<wgt id='1046'> +1.4818000e+02 </wgt>
<wgt id='1047'> +1.5328000e+02 </wgt>
<wgt id='1048'> +1.5314000e+02 </wgt>
<wgt id='1049'> +1.4457000e+02 </wgt>
<wgt id='1050'> +1.5059000e+02 </wgt>
<wgt id='1051'> +1.5318000e+02 </wgt>
<wgt id='1052'> +1.5732000e+02 </wgt>
<wgt id='1053'> +1.5066000e+02 </wgt>
<wgt id='1054'> +1.5227000e+02 </wgt>
<wgt id='1055'> +1.4806000e+02 </wgt>
<wgt id='1056'> +1.5359000e+02 </wgt>
<wgt id='1057'> +1.5379000e+02 </wgt>
<wgt id='1058'> +1.4891000e+02 </wgt>
<wgt id='1059'> +1.5602000e+02 </wgt>
<wgt id='1060'> +1.5463000e+02 </wgt>
<wgt id='1061'> +1.5532000e+02 </wgt>
<wgt id='1062'> +1.5131000e+02 </wgt>
<wgt id='1063'> +1.5193000e+02 </wgt>
<wgt id='1064'> +1.5310000e+02 </wgt>
<wgt id='1065'> +1.5205000e+02 </wgt>
<wgt id='1066'> +1.3932000e+02 </wgt>
<wgt id='1067'> +1.5378000e+02 </wgt>
<wgt id='1068'> +1.5473000e+02 </wgt>
<wgt id='1069'> +1.4608000e+02 </wgt>
<wgt id='1070'> +1.5234000e+02 </wgt>
<wgt id='1071'> +1.4662000e+02 </wgt>
<wgt id='1072'> +1.5063000e+02 </wgt>
<wgt id='1073'> +1.5163000e+02 </wgt>
<wgt id='1074'> +1.4706000e+02 </wgt>
<wgt id='1075'> +1.3460000e+02 </wgt>
<wgt id='1076'> +1.6029000e+02 </wgt>
<wgt id='1077'> +1.5289000e+02 </wgt>
<wgt id='1078'> +1.4602000e+02 </wgt>
<wgt id='1079'> +1.5208000e+02 </wgt>
<wgt id='1080'> +1.4997000e+02 </wgt>
<wgt id='1081'> +1.4696000e+02 </wgt>
<wgt id='1082'> +1.5405000e+02 </wgt>
<wgt id='1083'> +1.5401000e+02 </wgt>
<wgt id='1084'> +1.5520000e+02 </wgt>
<wgt id='1085'> +1.5055000e+02 </wgt>
<wgt id='1086'> +1.5428000e+02 </wgt>
<wgt id='1087'> +1.5256000e+02 </wgt>
<wgt id='1088'> +1.5077000e+02 </wgt>
<wgt id='1089'> +1.5150000e+02 </wgt>
<wgt id='1090'> +1.5402000e+02 </wgt>
<wgt id='1091'> +1.5031000e+02 </wgt>
<wgt id='1092'> +1.5484000e+02 </wgt>
<wgt id='1093'> +1.5124000e+02 </wgt>
<wgt id='1094'> +1.5079000e+02 </wgt>
<wgt id='1095'> +1.5178000e+02 </wgt>
<wgt id='1096'> +1.5006000e+02 </wgt>
<wgt id='1097'> +1.5053000e+02 </wgt>
<wgt id='1098'> +1.4900000e+02 </wgt>
<wgt id='1099'> +1.5193000e+02 </wgt>
<wgt id='1100'> +1.5663000e+02 </wgt>
<wgt id='1101'> +1.5495000e+02 </wgt>
<wgt id='1102'> +1.5131000e+02 </wgt>
<wgt id='1103'> +1.5111000e+02 </wgt>
<wgt id='1104'> +1.5173000e+02 </wgt>
<wgt id='1105'> +1.5146096e+02 </wgt>
<wgt id='1106'> +7.5647726e+01 </wgt>
<wgt id='1107'> +7.5832972e+01 </wgt>
<wgt id='1108'> +8.3765166e+01 </wgt>
<wgt id='1109'> +8.3735119e+01 </wgt>
<wgt id='1110'> +8.3802380e+01 </wgt>
<wgt id='1111'> +6.6796090e+01 </wgt>
<wgt id='1112'> +6.6674828e+01 </wgt>
<wgt id='1113'> +6.6946276e+01 </wgt>
<wgt id='1114'> +8.4122146e+01 </wgt>
<wgt id='1115'> +9.1402232e+01 </wgt>
<wgt id='1116'> +8.3079916e+01 </wgt>
<wgt id='1117'> +8.1871599e+01 </wgt>
<wgt id='1118'> +8.2535022e+01 </wgt>
<wgt id='1119'> +8.2290560e+01 </wgt>
<wgt id='1120'> +8.8298911e+01 </wgt>
<wgt id='1121'> +8.3792304e+01 </wgt>
<wgt id='1122'> +8.0929107e+01 </wgt>
<wgt id='1123'> +8.0133129e+01 </wgt>
<wgt id='1124'> +8.2844584e+01 </wgt>
<wgt id='1125'> +8.5768375e+01 </wgt>
<wgt id='1126'> +8.0272505e+01 </wgt>
<wgt id='1127'> +8.3047353e+01 </wgt>
<wgt id='1128'> +8.6130866e+01 </wgt>
<wgt id='1129'> +8.4021434e+01 </wgt>
<wgt id='1130'> +8.4168997e+01 </wgt>
<wgt id='1131'> +8.5567430e+01 </wgt>
<wgt id='1132'> +8.1919335e+01 </wgt>
<wgt id='1133'> +8.4170304e+01 </wgt>
<wgt id='1134'> +8.0173126e+01 </wgt>
<wgt id='1135'> +8.1599686e+01 </wgt>
<wgt id='1136'> +8.5602674e+01 </wgt>
<wgt id='1137'> +8.5199478e+01 </wgt>
<wgt id='1138'> +8.0496206e+01 </wgt>
<wgt id='1139'> +8.0843639e+01 </wgt>
<wgt id='1140'> +8.7194178e+01 </wgt>
<wgt id='1141'> +8.5846073e+01 </wgt>
<wgt id='1142'> +8.3354513e+01 </wgt>
<wgt id='1143'> +8.4961606e+01 </wgt>
<wgt id='1144'> +8.5860020e+01 </wgt>
<wgt id='1145'> +8.7887694e+01 </wgt>
<wgt id='1146'> +8.2512220e+01 </wgt>
<wgt id='1147'> +8.5351684e+01 </wgt>
<wgt id='1148'> +8.0736364e+01 </wgt>
<wgt id='1149'> +8.6489113e+01 </wgt>
<wgt id='1150'> +8.3554201e+01 </wgt>
<wgt id='1151'> +8.3146481e+01 </wgt>
<wgt id='1152'> +8.3001973e+01 </wgt>
<wgt id='1153'> +8.5129244e+01 </wgt>
<wgt id='1154'> +8.6661658e+01 </wgt>
<wgt id='1155'> +8.5236277e+01 </wgt>
<wgt id='1156'> +8.5274522e+01 </wgt>
<wgt id='1157'> +8.6257768e+01 </wgt>
<wgt id='1158'> +8.7016836e+01 </wgt>
<wgt id='1159'> +8.6106673e+01 </wgt>
<wgt id='1160'> +8.6636345e+01 </wgt>
<wgt id='1161'> +8.5313616e+01 </wgt>
<wgt id='1162'> +8.4273936e+01 </wgt>
<wgt id='1163'> +8.6562005e+01 </wgt>
<wgt id='1164'> +8.4501173e+01 </wgt>
<wgt id='1165'> +8.3132284e+01 </wgt>
<wgt id='1166'> +8.1714512e+01 </wgt>
<wgt id='1167'> +8.4668821e+01 </wgt>
<wgt id='1168'> +8.4287949e+01 </wgt>
<wgt id='1169'> +8.6273513e+01 </wgt>
<wgt id='1170'> +8.3336919e+01 </wgt>
<wgt id='1171'> +8.4801279e+01 </wgt>
<wgt id='1172'> +8.1903082e+01 </wgt>
<wgt id='1173'> +8.5092243e+01 </wgt>
<wgt id='1174'> +8.7099571e+01 </wgt>
<wgt id='1175'> +8.4472922e+01 </wgt>
<wgt id='1176'> +8.2433505e+01 </wgt>
<wgt id='1177'> +8.5550641e+01 </wgt>
<wgt id='1178'> +8.2250094e+01 </wgt>
<wgt id='1179'> +8.5303595e+01 </wgt>
<wgt id='1180'> +8.9825110e+01 </wgt>
<wgt id='1181'> +8.6866153e+01 </wgt>
<wgt id='1182'> +8.6090033e+01 </wgt>
<wgt id='1183'> +8.3921066e+01 </wgt>
<wgt id='1184'> +8.2656952e+01 </wgt>
<wgt id='1185'> +8.2305459e+01 </wgt>
<wgt id='1186'> +8.7526285e+01 </wgt>
<wgt id='1187'> +7.8816816e+01 </wgt>
<wgt id='1188'> +8.1199886e+01 </wgt>
<wgt id='1189'> +8.3422803e+01 </wgt>
<wgt id='1190'> +9.0115346e+01 </wgt>
<wgt id='1191'> +7.9861804e+01 </wgt>
<wgt id='1192'> +8.3466194e+01 </wgt>
<wgt id='1193'> +8.3513407e+01 </wgt>
<wgt id='1194'> +8.8082368e+01 </wgt>
<wgt id='1195'> +8.3049566e+01 </wgt>
<wgt id='1196'> +8.4168997e+01 </wgt>
<wgt id='1197'> +8.6592482e+01 </wgt>
<wgt id='1198'> +8.2259802e+01 </wgt>
<wgt id='1199'> +8.3538637e+01 </wgt>
<wgt id='1200'> +8.6547168e+01 </wgt>
<wgt id='1201'> +7.8949641e+01 </wgt>
<wgt id='1202'> +8.7134853e+01 </wgt>
<wgt id='1203'> +7.9183300e+01 </wgt>
<wgt id='1204'> +8.3422372e+01 </wgt>
<wgt id='1205'> +8.2073483e+01 </wgt>
<wgt id='1206'> +8.2019258e+01 </wgt>
<wgt id='1207'> +8.2387189e+01 </wgt>
<wgt id='1208'> +8.4396236e+01 </wgt>
<wgt id='1209'> +8.1203826e+01 </wgt>
<wgt id='1210'> +8.5360541e+01 </wgt>
<wgt id='1211'> +8.7601651e+01 </wgt>
<wgt id='1212'> +8.4181657e+01 </wgt>
<wgt id='1213'> +8.2344605e+01 </wgt>
<wgt id='1214'> +8.2070086e+01 </wgt>
<wgt id='1215'> +7.9780627e+01 </wgt>
<wgt id='1216'> +8.3163350e+01 </wgt>
<wgt id='1217'> +8.3049173e+01 </wgt>
<wgt id='1218'> +8.3313030e+01 </wgt>
<wgt id='1219'> +8.3140512e+01 </wgt>
<wgt id='1220'> +8.3725654e+01 </wgt>
<wgt id='1221'> +8.3208174e+01 </wgt>
<wgt id='1222'> +8.2869700e+01 </wgt>
<wgt id='1223'> +8.3283146e+01 </wgt>
<wgt id='1224'> +8.2821817e+01 </wgt>
<wgt id='1225'> +8.3409412e+01 </wgt>
<wgt id='1226'> +8.2197083e+01 </wgt>
<wgt id='1227'> +8.3078996e+01 </wgt>
<wgt id='1228'> +8.3473603e+01 </wgt>
<wgt id='1229'> +8.3225796e+01 </wgt>
<wgt id='1230'> +8.3797462e+01 </wgt>
<wgt id='1231'> +8.2341695e+01 </wgt>
<wgt id='1232'> +8.3533864e+01 </wgt>
<wgt id='1233'> +8.2990575e+01 </wgt>
<wgt id='1234'> +8.3541133e+01 </wgt>
<wgt id='1235'> +8.3054514e+01 </wgt>
<wgt id='1236'> +8.2439694e+01 </wgt>
<wgt id='1237'> +8.3940175e+01 </wgt>
<wgt id='1238'> +8.3350668e+01 </wgt>
<wgt id='1239'> +8.3322551e+01 </wgt>
<wgt id='1240'> +8.3363565e+01 </wgt>
<wgt id='1241'> +8.2462377e+01 </wgt>
<wgt id='1242'> +8.3021941e+01 </wgt>
<wgt id='1243'> +8.3517152e+01 </wgt>
<wgt id='1244'> +8.3066382e+01 </wgt>
<wgt id='1245'> +8.3776482e+01 </wgt>
<wgt id='1246'> +8.2964269e+01 </wgt>
<wgt id='1247'> +8.3219498e+01 </wgt>
<wgt id='1248'> +8.2773158e+01 </wgt>
<wgt id='1249'> +8.3535443e+01 </wgt>
<wgt id='1250'> +8.3524386e+01 </wgt>
<wgt id='1251'> +8.3167664e+01 </wgt>
<wgt id='1252'> +8.3221419e+01 </wgt>
<wgt id='1253'> +8.2994306e+01 </wgt>
<wgt id='1254'> +8.3233357e+01 </wgt>
<wgt id='1255'> +8.2944388e+01 </wgt>
<wgt id='1256'> +8.3179597e+01 </wgt>
<wgt id='1257'> +8.2816175e+01 </wgt>
<wgt id='1258'> +8.3232649e+01 </wgt>
<wgt id='1259'> +8.2921574e+01 </wgt>
<wgt id='1260'> +8.3107518e+01 </wgt>
<wgt id='1261'> +8.3369254e+01 </wgt>
<wgt id='1262'> +8.3262911e+01 </wgt>
<wgt id='1263'> +8.2807739e+01 </wgt>
<wgt id='1264'> +8.2879499e+01 </wgt>
<wgt id='1265'> +8.3417560e+01 </wgt>
<wgt id='1266'> +8.3180578e+01 </wgt>
<wgt id='1267'> +8.3258769e+01 </wgt>
<wgt id='1268'> +8.3069747e+01 </wgt>
<wgt id='1269'> +8.3108868e+01 </wgt>
<wgt id='1270'> +8.2931218e+01 </wgt>
<wgt id='1271'> +8.3102859e+01 </wgt>
<wgt id='1272'> +8.3210280e+01 </wgt>
<wgt id='1273'> +8.3171107e+01 </wgt>
<wgt id='1274'> +8.3068242e+01 </wgt>
<wgt id='1275'> +8.3097594e+01 </wgt>
<wgt id='1276'> +8.3222877e+01 </wgt>
<wgt id='1277'> +8.3223999e+01 </wgt>
<wgt id='1278'> +8.3120915e+01 </wgt>
<wgt id='1279'> +8.3184003e+01 </wgt>
<wgt id='1280'> +8.3180606e+01 </wgt>
<wgt id='1281'> +8.3083415e+01 </wgt>
<wgt id='1282'> +8.3295613e+01 </wgt>
<wgt id='1283'> +8.3140414e+01 </wgt>
<wgt id='1284'> +8.3170616e+01 </wgt>
<wgt id='1285'> +8.3258417e+01 </wgt>
<wgt id='1286'> +8.3130481e+01 </wgt>
<wgt id='1287'> +8.3214089e+01 </wgt>
<wgt id='1288'> +8.3085059e+01 </wgt>
<wgt id='1289'> +8.3293024e+01 </wgt>
<wgt id='1290'> +8.3179590e+01 </wgt>
<wgt id='1291'> +8.3135870e+01 </wgt>
<wgt id='1292'> +8.3225113e+01 </wgt>
<wgt id='1293'> +8.3171464e+01 </wgt>
<wgt id='1294'> +8.3215169e+01 </wgt>
<wgt id='1295'> +8.3112604e+01 </wgt>
<wgt id='1296'> +8.3240538e+01 </wgt>
<wgt id='1297'> +8.3218598e+01 </wgt>
<wgt id='1298'> +8.3145672e+01 </wgt>
<wgt id='1299'> +8.3138736e+01 </wgt>
<wgt id='1300'> +8.3230465e+01 </wgt>
<wgt id='1301'> +8.3204108e+01 </wgt>
<wgt id='1302'> +8.3213448e+01 </wgt>
<wgt id='1303'> +8.3149290e+01 </wgt>
<wgt id='1304'> +8.3198633e+01 </wgt>
<wgt id='1305'> +8.3207560e+01 </wgt>
<wgt id='1306'> +8.3137487e+01 </wgt>
<wgt id='1307'> +8.3176248e+01 </wgt>
<wgt id='1308'> +8.3181527e+01 </wgt>
<wgt id='1309'> +8.3147440e+01 </wgt>
<wgt id='1310'> +8.3161674e+01 </wgt>
<wgt id='1311'> +8.3164127e+01 </wgt>
<wgt id='1312'> +8.3203447e+01 </wgt>
<wgt id='1313'> +8.3176252e+01 </wgt>
<wgt id='1314'> +8.3122924e+01 </wgt>
<wgt id='1315'> +8.3142011e+01 </wgt>
<wgt id='1316'> +8.3183019e+01 </wgt>
<wgt id='1317'> +8.3008156e+01 </wgt>
<wgt id='1318'> +8.3561533e+01 </wgt>
<wgt id='1319'> +9.3764281e+01 </wgt>
<wgt id='1320'> +7.9178424e+01 </wgt>
<wgt id='1321'> +7.9369801e+01 </wgt>
<wgt id='1322'> +8.0067730e+01 </wgt>
<wgt id='1323'> +7.9784355e+01 </wgt>
<wgt id='1324'> +7.9616707e+01 </wgt>
<wgt id='1325'> +7.9563729e+01 </wgt>
<wgt id='1326'> +7.9105240e+01 </wgt>
<wgt id='1327'> +7.9452702e+01 </wgt>
<wgt id='1328'> +8.1430375e+01 </wgt>
<wgt id='1329'> +7.7806772e+01 </wgt>
<wgt id='1330'> +8.0351896e+01 </wgt>
<wgt id='1331'> +7.9096242e+01 </wgt>
<wgt id='1332'> +7.9328233e+01 </wgt>
<wgt id='1333'> +7.7216854e+01 </wgt>
<wgt id='1334'> +7.9684333e+01 </wgt>
<wgt id='1335'> +8.1171799e+01 </wgt>
<wgt id='1336'> +7.6591151e+01 </wgt>
<wgt id='1337'> +8.1202252e+01 </wgt>
<wgt id='1338'> +7.6897696e+01 </wgt>
<wgt id='1339'> +7.9927613e+01 </wgt>
<wgt id='1340'> +7.8231511e+01 </wgt>
<wgt id='1341'> +7.9775517e+01 </wgt>
<wgt id='1342'> +7.7887902e+01 </wgt>
<wgt id='1343'> +7.9643109e+01 </wgt>
<wgt id='1344'> +7.8514043e+01 </wgt>
<wgt id='1345'> +8.0227808e+01 </wgt>
<wgt id='1346'> +7.8402613e+01 </wgt>
<wgt id='1347'> +7.9547634e+01 </wgt>
<wgt id='1348'> +7.8625368e+01 </wgt>
<wgt id='1349'> +7.8445757e+01 </wgt>
<wgt id='1350'> +7.9423834e+01 </wgt>
<wgt id='1351'> +7.8828102e+01 </wgt>
<wgt id='1352'> +7.9619877e+01 </wgt>
<wgt id='1353'> +7.9795985e+01 </wgt>
<wgt id='1354'> +7.7817439e+01 </wgt>
<wgt id='1355'> +7.8647663e+01 </wgt>
<wgt id='1356'> +7.9848891e+01 </wgt>
<wgt id='1357'> +7.9509101e+01 </wgt>
<wgt id='1358'> +7.8122304e+01 </wgt>
<wgt id='1359'> +7.7981719e+01 </wgt>
<wgt id='1360'> +7.9440871e+01 </wgt>
<wgt id='1361'> +8.0441704e+01 </wgt>
<wgt id='1362'> +7.7923450e+01 </wgt>
<wgt id='1363'> +7.9749663e+01 </wgt>
<wgt id='1364'> +7.8283073e+01 </wgt>
<wgt id='1365'> +7.8424278e+01 </wgt>
<wgt id='1366'> +7.8686763e+01 </wgt>
<wgt id='1367'> +7.8385555e+01 </wgt>
<wgt id='1368'> +7.9176390e+01 </wgt>
<wgt id='1369'> +7.8874685e+01 </wgt>
<wgt id='1370'> +7.8745886e+01 </wgt>
<wgt id='1371'> +7.7637700e+01 </wgt>
<wgt id='1372'> +7.8017483e+01 </wgt>
<wgt id='1373'> +7.8700557e+01 </wgt>
<wgt id='1374'> +7.8489925e+01 </wgt>
<wgt id='1375'> +7.7127749e+01 </wgt>
<wgt id='1376'> +8.1923076e+01 </wgt>
<wgt id='1377'> +7.8692381e+01 </wgt>
<wgt id='1378'> +7.9600501e+01 </wgt>
<wgt id='1379'> +8.2821785e+01 </wgt>
<wgt id='1380'> +8.2066505e+01 </wgt>
<wgt id='1381'> +8.3691796e+01 </wgt>
<wgt id='1382'> +6.8962094e+01 </wgt>
<wgt id='1383'> +7.6449319e+01 </wgt>
<wgt id='1384'> +8.1516090e+01 </wgt>
<wgt id='1385'> +6.6634267e+01 </wgt>
<wgt id='1386'> +6.6893969e+01 </wgt>
<wgt id='1387'> +6.6345698e+01 </wgt>
<wgt id='1388'> +6.6204955e+01 </wgt>
<wgt id='1389'> +6.7371772e+01 </wgt>
<wgt id='1390'> +6.7088100e+01 </wgt>
<wgt id='1391'> +6.6099808e+01 </wgt>
<wgt id='1392'> +6.6482013e+01 </wgt>
<wgt id='1393'> +6.6743941e+01 </wgt>
<wgt id='1394'> +6.6564165e+01 </wgt>
<wgt id='1395'> +6.6719950e+01 </wgt>
<wgt id='1396'> +6.6512391e+01 </wgt>
<wgt id='1397'> +6.6692022e+01 </wgt>
<wgt id='1398'> +6.6522480e+01 </wgt>
<wgt id='1399'> +6.6703063e+01 </wgt>
<wgt id='1400'> +6.6873307e+01 </wgt>
<wgt id='1401'> +6.6439216e+01 </wgt>
<wgt id='1402'> +6.6984545e+01 </wgt>
<wgt id='1403'> +6.6474343e+01 </wgt>
<wgt id='1404'> +6.6151184e+01 </wgt>
<wgt id='1405'> +6.6876423e+01 </wgt>
<wgt id='1406'> +6.6176639e+01 </wgt>
<wgt id='1407'> +6.7442565e+01 </wgt>
<wgt id='1408'> +6.6173075e+01 </wgt>
<wgt id='1409'> +6.7565101e+01 </wgt>
<wgt id='1410'> +6.6826662e+01 </wgt>
<wgt id='1411'> +6.6119890e+01 </wgt>
<wgt id='1412'> +6.7268947e+01 </wgt>
<wgt id='1413'> +6.5757908e+01 </wgt>
<wgt id='1414'> +6.6681445e+01 </wgt>
<wgt id='1415'> +6.6618547e+01 </wgt>
<wgt id='1416'> +6.6699882e+01 </wgt>
<wgt id='1417'> +6.6607085e+01 </wgt>
<wgt id='1418'> +6.6477581e+01 </wgt>
<wgt id='1419'> +6.6962647e+01 </wgt>
<wgt id='1420'> +6.6458784e+01 </wgt>
<wgt id='1421'> +6.6504520e+01 </wgt>
<wgt id='1422'> +6.6731915e+01 </wgt>
<wgt id='1423'> +6.6556328e+01 </wgt>
<wgt id='1424'> +6.6852514e+01 </wgt>
<wgt id='1425'> +6.6144727e+01 </wgt>
<wgt id='1426'> +6.7369875e+01 </wgt>
<wgt id='1427'> +6.7078744e+01 </wgt>
<wgt id='1428'> +6.6340387e+01 </wgt>
<wgt id='1429'> +6.6004734e+01 </wgt>
<wgt id='1430'> +6.7301926e+01 </wgt>
<wgt id='1431'> +6.7385147e+01 </wgt>
<wgt id='1432'> +6.7275353e+01 </wgt>
<wgt id='1433'> +6.7648276e+01 </wgt>
<wgt id='1434'> +6.6502141e+01 </wgt>
<wgt id='1435'> +6.6784834e+01 </wgt>
<wgt id='1436'> +8.4845499e+01 </wgt>
<wgt id='1437'> +8.5005444e+01 </wgt>
<wgt id='1438'> +8.4517734e+01 </wgt>
<wgt id='1439'> +8.4847842e+01 </wgt>
<wgt id='1440'> +8.4825646e+01 </wgt>
<wgt id='1441'> +8.5263998e+01 </wgt>
<wgt id='1442'> +8.4795247e+01 </wgt>
<wgt id='1443'> +8.5149656e+01 </wgt>
<wgt id='1444'> +8.4604420e+01 </wgt>
<wgt id='1445'> +8.4583612e+01 </wgt>
<wgt id='1446'> +8.4928870e+01 </wgt>
<wgt id='1447'> +8.4937153e+01 </wgt>
<wgt id='1448'> +8.4561457e+01 </wgt>
<wgt id='1449'> +8.5081621e+01 </wgt>
<wgt id='1450'> +8.4897337e+01 </wgt>
<wgt id='1451'> +8.4792231e+01 </wgt>
<wgt id='1452'> +8.4794006e+01 </wgt>
<wgt id='1453'> +8.4690744e+01 </wgt>
<wgt id='1454'> +8.4909425e+01 </wgt>
<wgt id='1455'> +8.4784435e+01 </wgt>
<wgt id='1456'> +8.4684083e+01 </wgt>
<wgt id='1457'> +8.5006704e+01 </wgt>
<wgt id='1458'> +8.4469913e+01 </wgt>
<wgt id='1459'> +8.4978261e+01 </wgt>
<wgt id='1460'> +8.4858461e+01 </wgt>
<wgt id='1461'> +8.5100856e+01 </wgt>
<wgt id='1462'> +8.5091762e+01 </wgt>
<wgt id='1463'> +8.4656838e+01 </wgt>
<wgt id='1464'> +8.4988173e+01 </wgt>
<wgt id='1465'> +8.3648831e+01 </wgt>
<wgt id='1466'> +7.7120769e+01 </wgt>
<wgt id='1467'> +7.6969164e+01 </wgt>
<wgt id='1468'> +7.6618523e+01 </wgt>
<wgt id='1469'> +7.8683984e+01 </wgt>
<wgt id='1470'> +7.6806390e+01 </wgt>
<wgt id='1471'> +7.7086209e+01 </wgt>
<wgt id='1472'> +7.6084651e+01 </wgt>
<wgt id='1473'> +7.7770151e+01 </wgt>
<wgt id='1474'> +7.7717778e+01 </wgt>
<wgt id='1475'> +7.6704091e+01 </wgt>
<wgt id='1476'> +7.6863838e+01 </wgt>
<wgt id='1477'> +7.6098308e+01 </wgt>
<wgt id='1478'> +7.6747051e+01 </wgt>
<wgt id='1479'> +7.7659609e+01 </wgt>
<wgt id='1480'> +7.6941315e+01 </wgt>
<wgt id='1481'> +7.6912520e+01 </wgt>
<wgt id='1482'> +7.6739533e+01 </wgt>
<wgt id='1483'> +7.7313785e+01 </wgt>
<wgt id='1484'> +7.7910839e+01 </wgt>
<wgt id='1485'> +7.6652337e+01 </wgt>
<wgt id='1486'> +7.7311693e+01 </wgt>
<wgt id='1487'> +7.6689399e+01 </wgt>
<wgt id='1488'> +7.6585623e+01 </wgt>
<wgt id='1489'> +7.7325551e+01 </wgt>
<wgt id='1490'> +7.7192315e+01 </wgt>
<wgt id='1491'> +7.7133794e+01 </wgt>
<wgt id='1492'> +7.7038973e+01 </wgt>
<wgt id='1493'> +7.7117603e+01 </wgt>
<wgt id='1494'> +7.6917208e+01 </wgt>
<wgt id='1495'> +7.7174013e+01 </wgt>
<wgt id='1496'> +7.7257188e+01 </wgt>
<wgt id='1497'> +7.7102120e+01 </wgt>
<wgt id='1498'> +7.6568609e+01 </wgt>
<wgt id='1499'> +7.6915892e+01 </wgt>
<wgt id='1500'> +7.7569309e+01 </wgt>
<wgt id='1501'> +7.7463865e+01 </wgt>
<wgt id='1502'> +7.6818148e+01 </wgt>
<wgt id='1503'> +7.7148668e+01 </wgt>
<wgt id='1504'> +7.7052880e+01 </wgt>
<wgt id='1505'> +7.7263325e+01 </wgt>
<wgt id='1506'> +7.6908126e+01 </wgt>
<wgt id='1507'> +7.7111694e+01 </wgt>
<wgt id='1508'> +7.7042313e+01 </wgt>
<wgt id='1509'> +7.7066034e+01 </wgt>
<wgt id='1510'> +7.7138537e+01 </wgt>
<wgt id='1511'> +7.7347687e+01 </wgt>
<wgt id='1512'> +7.7390361e+01 </wgt>
<wgt id='1513'> +7.7223139e+01 </wgt>
<wgt id='1514'> +7.7201613e+01 </wgt>
<wgt id='1515'> +7.7222315e+01 </wgt>
<wgt id='1516'> +7.7210146e+01 </wgt>
<wgt id='1517'> +7.7043894e+01 </wgt>
<wgt id='1518'> +7.7134080e+01 </wgt>
<wgt id='1519'> +7.7030159e+01 </wgt>
<wgt id='1520'> +7.7106060e+01 </wgt>
<wgt id='1521'> +7.7162619e+01 </wgt>
<wgt id='1522'> +7.7128058e+01 </wgt>
<wgt id='1523'> +7.7042041e+01 </wgt>
<wgt id='1524'> +7.7207057e+01 </wgt>
<wgt id='1525'> +7.7190211e+01 </wgt>
<wgt id='1526'> +7.7153234e+01 </wgt>
<wgt id='1527'> +7.7206675e+01 </wgt>
<wgt id='1528'> +7.7106810e+01 </wgt>
<wgt id='1529'> +7.7087453e+01 </wgt>
<wgt id='1530'> +7.7127671e+01 </wgt>
<wgt id='1531'> +7.7120531e+01 </wgt>
<wgt id='1532'> +7.7078158e+01 </wgt>
<wgt id='1533'> +7.7056946e+01 </wgt>
<wgt id='1534'> +7.7153855e+01 </wgt>
<wgt id='1535'> +7.7113004e+01 </wgt>
<wgt id='1536'> +7.7146468e+01 </wgt>
<wgt id='1537'> +7.7150067e+01 </wgt>
<wgt id='1538'> +7.7061297e+01 </wgt>
<wgt id='1539'> +7.7072259e+01 </wgt>
<wgt id='1540'> +7.7123614e+01 </wgt>
<wgt id='1541'> +7.7118895e+01 </wgt>
<wgt id='1542'> +7.7076185e+01 </wgt>
<wgt id='1543'> +7.7119559e+01 </wgt>
<wgt id='1544'> +7.7118775e+01 </wgt>
<wgt id='1545'> +7.7154253e+01 </wgt>
<wgt id='1546'> +7.7138027e+01 </wgt>
<wgt id='1547'> +7.7147546e+01 </wgt>
<wgt id='1548'> +7.7115400e+01 </wgt>
<wgt id='1549'> +7.7114295e+01 </wgt>
<wgt id='1550'> +7.7163712e+01 </wgt>
<wgt id='1551'> +7.7096506e+01 </wgt>
<wgt id='1552'> +7.7136194e+01 </wgt>
<wgt id='1553'> +7.7090694e+01 </wgt>
<wgt id='1554'> +7.7084646e+01 </wgt>
<wgt id='1555'> +7.7090638e+01 </wgt>
<wgt id='1556'> +7.7119084e+01 </wgt>
<wgt id='1557'> +7.7103913e+01 </wgt>
<wgt id='1558'> +7.7140016e+01 </wgt>
<wgt id='1559'> +7.7119438e+01 </wgt>
<wgt id='1560'> +7.7116305e+01 </wgt>
<wgt id='1561'> +7.7099923e+01 </wgt>
<wgt id='1562'> +7.7131634e+01 </wgt>
<wgt id='1563'> +7.7100911e+01 </wgt>
<wgt id='1564'> +7.7115251e+01 </wgt>
<wgt id='1565'> +7.7128291e+01 </wgt>
<wgt id='1566'> +7.7117547e+01 </wgt>
<wgt id='1567'> +7.6576720e+01 </wgt>
<wgt id='1568'> +7.7506498e+01 </wgt>
<wgt id='1569'> +8.1358809e+01 </wgt>
<wgt id='1570'> +8.1719829e+01 </wgt>
<wgt id='1571'> +8.0945246e+01 </wgt>
<wgt id='1572'> +8.1917670e+01 </wgt>
<wgt id='1573'> +8.2319895e+01 </wgt>
<wgt id='1574'> +8.2500157e+01 </wgt>
<wgt id='1575'> +8.1919857e+01 </wgt>
<wgt id='1576'> +8.1327782e+01 </wgt>
<wgt id='1577'> +8.1316408e+01 </wgt>
<wgt id='1578'> +8.1565143e+01 </wgt>
<wgt id='1579'> +8.1384631e+01 </wgt>
<wgt id='1580'> +8.2392564e+01 </wgt>
<wgt id='1581'> +8.1223475e+01 </wgt>
<wgt id='1582'> +8.1821183e+01 </wgt>
<wgt id='1583'> +8.0621829e+01 </wgt>
<wgt id='1584'> +8.1469568e+01 </wgt>
<wgt id='1585'> +8.1111995e+01 </wgt>
<wgt id='1586'> +8.1296029e+01 </wgt>
<wgt id='1587'> +8.1947940e+01 </wgt>
<wgt id='1588'> +8.0137734e+01 </wgt>
<wgt id='1589'> +8.1437278e+01 </wgt>
<wgt id='1590'> +8.1515400e+01 </wgt>
<wgt id='1591'> +8.1109345e+01 </wgt>
<wgt id='1592'> +8.1462978e+01 </wgt>
<wgt id='1593'> +8.1644107e+01 </wgt>
<wgt id='1594'> +8.1485464e+01 </wgt>
<wgt id='1595'> +8.1385863e+01 </wgt>
<wgt id='1596'> +8.1293830e+01 </wgt>
<wgt id='1597'> +8.1585824e+01 </wgt>
<wgt id='1598'> +8.1789819e+01 </wgt>
<wgt id='1599'> +8.1452401e+01 </wgt>
<wgt id='1600'> +8.1727522e+01 </wgt>
<wgt id='1601'> +8.1489917e+01 </wgt>
<wgt id='1602'> +8.1654190e+01 </wgt>
<wgt id='1603'> +8.1468412e+01 </wgt>
<wgt id='1604'> +8.1522069e+01 </wgt>
<wgt id='1605'> +8.1982613e+01 </wgt>
<wgt id='1606'> +8.1474750e+01 </wgt>
<wgt id='1607'> +8.1026951e+01 </wgt>
<wgt id='1608'> +8.1659989e+01 </wgt>
<wgt id='1609'> +8.0927897e+01 </wgt>
<wgt id='1610'> +8.1053677e+01 </wgt>
<wgt id='1611'> +8.1314351e+01 </wgt>
<wgt id='1612'> +8.1388403e+01 </wgt>
<wgt id='1613'> +8.1420230e+01 </wgt>
<wgt id='1614'> +8.1313451e+01 </wgt>
<wgt id='1615'> +8.1101629e+01 </wgt>
<wgt id='1616'> +8.1287653e+01 </wgt>
<wgt id='1617'> +8.1260981e+01 </wgt>
<wgt id='1618'> +8.1338816e+01 </wgt>
<wgt id='1619'> +8.1240320e+01 </wgt>
<wgt id='1620'> +8.1376736e+01 </wgt>
<wgt id='1621'> +8.1434382e+01 </wgt>
<wgt id='1622'> +8.1292998e+01 </wgt>
<wgt id='1623'> +8.1398215e+01 </wgt>
<wgt id='1624'> +8.1220186e+01 </wgt>
<wgt id='1625'> +8.1390723e+01 </wgt>
<wgt id='1626'> +8.1345531e+01 </wgt>
<wgt id='1627'> +8.1337361e+01 </wgt>
<wgt id='1628'> +8.1363350e+01 </wgt>
<wgt id='1629'> +8.1327063e+01 </wgt>
<wgt id='1630'> +8.1355776e+01 </wgt>
<wgt id='1631'> +8.1448971e+01 </wgt>
<wgt id='1632'> +8.1379424e+01 </wgt>
<wgt id='1633'> +8.1340823e+01 </wgt>
<wgt id='1634'> +8.1382358e+01 </wgt>
<wgt id='1635'> +8.1377451e+01 </wgt>
<wgt id='1636'> +8.1392703e+01 </wgt>
<wgt id='1637'> +8.1301557e+01 </wgt>
<wgt id='1638'> +8.1387683e+01 </wgt>
<wgt id='1639'> +8.1401212e+01 </wgt>
<wgt id='1640'> +8.1432751e+01 </wgt>
<wgt id='1641'> +8.1384748e+01 </wgt>
<wgt id='1642'> +8.1390103e+01 </wgt>
<wgt id='1643'> +8.1391667e+01 </wgt>
<wgt id='1644'> +8.1353537e+01 </wgt>
<wgt id='1645'> +8.1353236e+01 </wgt>
<wgt id='1646'> +8.1366601e+01 </wgt>
<wgt id='1647'> +8.1369836e+01 </wgt>
<wgt id='1648'> +8.1370227e+01 </wgt>
<wgt id='1649'> +8.1376367e+01 </wgt>
<wgt id='1650'> +8.1334172e+01 </wgt>
<wgt id='1651'> +8.1363979e+01 </wgt>
<wgt id='1652'> +8.1327863e+01 </wgt>
<wgt id='1653'> +8.1332812e+01 </wgt>
<wgt id='1654'> +8.1340978e+01 </wgt>
<wgt id='1655'> +8.1332295e+01 </wgt>
<wgt id='1656'> +8.1341227e+01 </wgt>
<wgt id='1657'> +8.1375990e+01 </wgt>
<wgt id='1658'> +8.1384244e+01 </wgt>
<wgt id='1659'> +8.1376577e+01 </wgt>
<wgt id='1660'> +8.1332205e+01 </wgt>
<wgt id='1661'> +8.1355116e+01 </wgt>
<wgt id='1662'> +8.1340690e+01 </wgt>
<wgt id='1663'> +8.1359651e+01 </wgt>
<wgt id='1664'> +8.1365123e+01 </wgt>
<wgt id='1665'> +8.1345140e+01 </wgt>
<wgt id='1666'> +8.1348149e+01 </wgt>
<wgt id='1667'> +8.1347995e+01 </wgt>
<wgt id='1668'> +8.1348782e+01 </wgt>
<wgt id='1669'> +8.1358339e+01 </wgt>
<wgt id='1670'> +8.0821621e+01 </wgt>
<wgt id='1671'> +8.2008287e+01 </wgt>
<wgt id='1672'> +7.7121140e+01 </wgt>
<wgt id='1673'> +7.6944010e+01 </wgt>
<wgt id='1674'> +7.6008500e+01 </wgt>
<wgt id='1675'> +7.7111166e+01 </wgt>
<wgt id='1676'> +7.9051459e+01 </wgt>
<wgt id='1677'> +7.7750222e+01 </wgt>
<wgt id='1678'> +7.6956451e+01 </wgt>
<wgt id='1679'> +7.7197530e+01 </wgt>
<wgt id='1680'> +7.7210143e+01 </wgt>
<wgt id='1681'> +7.7703000e+01 </wgt>
<wgt id='1682'> +7.7002392e+01 </wgt>
<wgt id='1683'> +7.6265583e+01 </wgt>
<wgt id='1684'> +7.7216451e+01 </wgt>
<wgt id='1685'> +7.7030833e+01 </wgt>
<wgt id='1686'> +7.6591283e+01 </wgt>
<wgt id='1687'> +7.7288641e+01 </wgt>
<wgt id='1688'> +7.7401555e+01 </wgt>
<wgt id='1689'> +7.6649853e+01 </wgt>
<wgt id='1690'> +7.7187066e+01 </wgt>
<wgt id='1691'> +7.7063094e+01 </wgt>
<wgt id='1692'> +7.7844582e+01 </wgt>
<wgt id='1693'> +7.6982179e+01 </wgt>
<wgt id='1694'> +7.7003892e+01 </wgt>
<wgt id='1695'> +7.7227384e+01 </wgt>
<wgt id='1696'> +7.7000026e+01 </wgt>
<wgt id='1697'> +7.7114525e+01 </wgt>
<wgt id='1698'> +7.7209637e+01 </wgt>
<wgt id='1699'> +7.7118627e+01 </wgt>
<wgt id='1700'> +7.7160544e+01 </wgt>
<wgt id='1701'> +7.6836568e+01 </wgt>
<wgt id='1702'> +7.7224569e+01 </wgt>
<wgt id='1703'> +7.6576720e+01 </wgt>
<wgt id='1704'> +7.7506498e+01 </wgt>
<wgt id='1705'> +8.1359054e+01 </wgt>
<wgt id='1706'> +8.1287237e+01 </wgt>
<wgt id='1707'> +8.2241860e+01 </wgt>
<wgt id='1708'> +8.1416059e+01 </wgt>
<wgt id='1709'> +7.9264819e+01 </wgt>
<wgt id='1710'> +8.1025238e+01 </wgt>
<wgt id='1711'> +8.1418330e+01 </wgt>
<wgt id='1712'> +8.1315462e+01 </wgt>
<wgt id='1713'> +8.1318958e+01 </wgt>
<wgt id='1714'> +8.0837216e+01 </wgt>
<wgt id='1715'> +8.1185494e+01 </wgt>
<wgt id='1716'> +8.1710671e+01 </wgt>
<wgt id='1717'> +8.1355532e+01 </wgt>
<wgt id='1718'> +8.1423635e+01 </wgt>
<wgt id='1719'> +8.1163457e+01 </wgt>
<wgt id='1720'> +8.1488743e+01 </wgt>
<wgt id='1721'> +8.1296572e+01 </wgt>
<wgt id='1722'> +8.1356348e+01 </wgt>
<wgt id='1723'> +8.1400993e+01 </wgt>
<wgt id='1724'> +8.1439282e+01 </wgt>
<wgt id='1725'> +8.0760445e+01 </wgt>
<wgt id='1726'> +8.1441426e+01 </wgt>
<wgt id='1727'> +8.1882794e+01 </wgt>
<wgt id='1728'> +8.1365376e+01 </wgt>
<wgt id='1729'> +8.1191795e+01 </wgt>
<wgt id='1730'> +8.1402215e+01 </wgt>
<wgt id='1731'> +8.1245839e+01 </wgt>
<wgt id='1732'> +8.1598901e+01 </wgt>
<wgt id='1733'> +8.1388337e+01 </wgt>
<wgt id='1734'> +8.1169563e+01 </wgt>
<wgt id='1735'> +8.2605846e+01 </wgt>
<wgt id='1736'> +8.0821621e+01 </wgt>
<wgt id='1737'> +8.2008287e+01 </wgt>
<wgt id='1738'> +8.7740358e+01 </wgt>
<wgt id='1739'> +8.7956919e+01 </wgt>
<wgt id='1740'> +8.7525276e+01 </wgt>
<wgt id='1741'> +8.7674337e+01 </wgt>
<wgt id='1742'> +8.7806185e+01 </wgt>
<wgt id='1743'> +8.7946470e+01 </wgt>
<wgt id='1744'> +8.7534498e+01 </wgt>
<wgt id='1745'> +8.7460900e+01 </wgt>
<wgt id='1746'> +8.8007332e+01 </wgt>
<wgt id='1747'> +8.8068609e+01 </wgt>
<wgt id='1748'> +8.7411648e+01 </wgt>
<wgt id='1749'> +8.8070727e+01 </wgt>
<wgt id='1750'> +8.7405088e+01 </wgt>
<wgt id='1751'> +8.7706993e+01 </wgt>
<wgt id='1752'> +8.7771438e+01 </wgt>
<wgt id='1753'> +8.7605693e+01 </wgt>
<wgt id='1754'> +8.7801546e+01 </wgt>
<wgt id='1755'> +8.7647863e+01 </wgt>
<wgt id='1756'> +8.7756564e+01 </wgt>
<wgt id='1757'> +8.7407216e+01 </wgt>
<wgt id='1758'> +8.8081677e+01 </wgt>
<wgt id='1759'> +8.8126852e+01 </wgt>
<wgt id='1760'> +8.7254092e+01 </wgt>
<wgt id='1761'> +8.7263298e+01 </wgt>
<wgt id='1762'> +8.7847609e+01 </wgt>
<wgt id='1763'> +8.7711462e+01 </wgt>
<wgt id='1764'> +8.7889586e+01 </wgt>
<wgt id='1765'> +8.7127292e+01 </wgt>
<wgt id='1766'> +8.8310679e+01 </wgt>
<wgt id='1767'> +8.7740358e+01 </wgt>
<wgt id='1768'> +8.9434686e+01 </wgt>
<wgt id='1769'> +8.5662617e+01 </wgt>
<wgt id='1770'> +8.9689014e+01 </wgt>
<wgt id='1771'> +8.6309362e+01 </wgt>
<wgt id='1772'> +8.7884449e+01 </wgt>
<wgt id='1773'> +8.7380134e+01 </wgt>
<wgt id='1774'> +8.7517072e+01 </wgt>
<wgt id='1775'> +8.7960460e+01 </wgt>
<wgt id='1776'> +8.6674649e+01 </wgt>
<wgt id='1777'> +8.8796516e+01 </wgt>
<wgt id='1778'> +8.7776708e+01 </wgt>
<wgt id='1779'> +8.8786781e+01 </wgt>
<wgt id='1780'> +8.9497479e+01 </wgt>
<wgt id='1781'> +8.9024299e+01 </wgt>
<wgt id='1782'> +8.9276750e+01 </wgt>
<wgt id='1783'> +8.8801239e+01 </wgt>
<wgt id='1784'> +8.8869187e+01 </wgt>
<wgt id='1785'> +8.9207814e+01 </wgt>
<wgt id='1786'> +8.9173376e+01 </wgt>
<wgt id='1787'> +8.8903557e+01 </wgt>
<wgt id='1788'> +8.8649864e+01 </wgt>
<wgt id='1789'> +8.9407566e+01 </wgt>
<wgt id='1790'> +8.9375114e+01 </wgt>
<wgt id='1791'> +8.8697356e+01 </wgt>
<wgt id='1792'> +8.9034236e+01 </wgt>
<wgt id='1793'> +8.9042104e+01 </wgt>
<wgt id='1794'> +8.8896390e+01 </wgt>
<wgt id='1795'> +8.9180522e+01 </wgt>
<wgt id='1796'> +8.8937227e+01 </wgt>
<wgt id='1797'> +8.9121048e+01 </wgt>
<wgt id='1798'> +8.8962187e+01 </wgt>
<wgt id='1799'> +8.9096142e+01 </wgt>
<wgt id='1800'> +8.9001532e+01 </wgt>
<wgt id='1801'> +8.9068572e+01 </wgt>
<wgt id='1802'> +8.8264039e+01 </wgt>
<wgt id='1803'> +8.9697723e+01 </wgt>
<wgt id='1804'> +8.8742716e+01 </wgt>
<wgt id='1805'> +8.9338586e+01 </wgt>
<wgt id='1806'> +8.8779094e+01 </wgt>
<wgt id='1807'> +8.9102088e+01 </wgt>
<wgt id='1808'> +8.8837195e+01 </wgt>
<wgt id='1809'> +8.9248524e+01 </wgt>
<wgt id='1810'> +8.9024300e+01 </wgt>
<wgt id='1811'> +9.1016530e+01 </wgt>
<wgt id='1812'> +8.6450953e+01 </wgt>
<wgt id='1813'> +9.1339791e+01 </wgt>
<wgt id='1814'> +8.7361686e+01 </wgt>
<wgt id='1815'> +8.8626626e+01 </wgt>
<wgt id='1816'> +8.8683699e+01 </wgt>
<wgt id='1817'> +8.8825941e+01 </wgt>
<wgt id='1818'> +8.9392439e+01 </wgt>
<wgt id='1819'> +8.7522483e+01 </wgt>
<wgt id='1820'> +8.9600754e+01 </wgt>
<wgt id='1821'> +8.8220635e+01 </wgt>
<wgt id='1822'> +9.0704537e+01 </wgt>
<wgt id='1823'> +8.9274397e+01 </wgt>
<wgt id='1824'> +7.8318437e+01 </wgt>
<wgt id='1825'> +7.8286121e+01 </wgt>
<wgt id='1826'> +7.8253934e+01 </wgt>
<wgt id='1827'> +7.8221466e+01 </wgt>
<wgt id='1828'> +7.8189523e+01 </wgt>
<wgt id='1829'> +7.8157032e+01 </wgt>
<wgt id='1830'> +7.8124902e+01 </wgt>
<wgt id='1831'> +7.8092683e+01 </wgt>
<wgt id='1832'> +7.8060052e+01 </wgt>
<wgt id='1833'> +7.8028044e+01 </wgt>
<wgt id='1834'> +7.7995838e+01 </wgt>
<wgt id='1835'> +7.7963701e+01 </wgt>
<wgt id='1836'> +7.7931223e+01 </wgt>
<wgt id='1837'> +7.7899369e+01 </wgt>
<wgt id='1838'> +7.7866952e+01 </wgt>
<wgt id='1839'> +7.7834446e+01 </wgt>
<wgt id='1840'> +7.7802688e+01 </wgt>
<wgt id='1841'> +7.7770232e+01 </wgt>
<wgt id='1842'> +7.7738467e+01 </wgt>
<wgt id='1843'> +7.7705954e+01 </wgt>
<wgt id='1844'> +7.7673922e+01 </wgt>
<wgt id='1845'> +7.7641843e+01 </wgt>
<wgt id='1846'> +7.7609347e+01 </wgt>
<wgt id='1847'> +7.7577375e+01 </wgt>
<wgt id='1848'> +7.7545258e+01 </wgt>
<wgt id='1849'> +7.7513190e+01 </wgt>
<wgt id='1850'> +7.7480813e+01 </wgt>
<wgt id='1851'> +7.7449099e+01 </wgt>
<wgt id='1852'> +7.7416789e+01 </wgt>
<wgt id='1853'> +7.7384318e+01 </wgt>
<wgt id='1854'> +7.7352652e+01 </wgt>
<wgt id='1855'> +8.0930552e+01 </wgt>
<wgt id='1856'> +8.1265926e+01 </wgt>
<wgt id='1857'> +8.0513336e+01 </wgt>
<wgt id='1858'> +8.1487064e+01 </wgt>
<wgt id='1859'> +8.1880734e+01 </wgt>
<wgt id='1860'> +8.2062794e+01 </wgt>
<wgt id='1861'> +8.1505859e+01 </wgt>
<wgt id='1862'> +8.0919072e+01 </wgt>
<wgt id='1863'> +8.0890035e+01 </wgt>
<wgt id='1864'> +8.1136461e+01 </wgt>
<wgt id='1865'> +8.0951042e+01 </wgt>
<wgt id='1866'> +8.1981099e+01 </wgt>
<wgt id='1867'> +8.0807410e+01 </wgt>
<wgt id='1868'> +8.1399646e+01 </wgt>
<wgt id='1869'> +8.0197738e+01 </wgt>
<wgt id='1870'> +8.1012121e+01 </wgt>
<wgt id='1871'> +8.0708267e+01 </wgt>
<wgt id='1872'> +8.0857068e+01 </wgt>
<wgt id='1873'> +8.1512254e+01 </wgt>
<wgt id='1874'> +7.9728649e+01 </wgt>
<wgt id='1875'> +8.1025029e+01 </wgt>
<wgt id='1876'> +8.1077727e+01 </wgt>
<wgt id='1877'> +8.0676113e+01 </wgt>
<wgt id='1878'> +8.1042036e+01 </wgt>
<wgt id='1879'> +8.1205726e+01 </wgt>
<wgt id='1880'> +8.1040275e+01 </wgt>
<wgt id='1881'> +8.0940356e+01 </wgt>
<wgt id='1882'> +8.0884490e+01 </wgt>
<wgt id='1883'> +8.1163071e+01 </wgt>
<wgt id='1884'> +8.1349730e+01 </wgt>
<wgt id='1885'> +8.1014767e+01 </wgt>
<wgt id='1886'> +8.1316571e+01 </wgt>
<wgt id='1887'> +8.1053176e+01 </wgt>
<wgt id='1888'> +8.1218445e+01 </wgt>
<wgt id='1889'> +8.1039389e+01 </wgt>
<wgt id='1890'> +8.1087555e+01 </wgt>
<wgt id='1891'> +8.1553588e+01 </wgt>
<wgt id='1892'> +8.1045070e+01 </wgt>
<wgt id='1893'> +8.0597083e+01 </wgt>
<wgt id='1894'> +8.1222711e+01 </wgt>
<wgt id='1895'> +8.0501926e+01 </wgt>
<wgt id='1896'> +8.0624604e+01 </wgt>
<wgt id='1897'> +8.0884624e+01 </wgt>
<wgt id='1898'> +8.0969445e+01 </wgt>
<wgt id='1899'> +8.0988813e+01 </wgt>
<wgt id='1900'> +8.0883896e+01 </wgt>
<wgt id='1901'> +8.0678558e+01 </wgt>
<wgt id='1902'> +8.0855877e+01 </wgt>
<wgt id='1903'> +8.0836212e+01 </wgt>
<wgt id='1904'> +8.0908877e+01 </wgt>
<wgt id='1905'> +8.0813757e+01 </wgt>
<wgt id='1906'> +8.0945736e+01 </wgt>
<wgt id='1907'> +8.1004904e+01 </wgt>
<wgt id='1908'> +8.0864483e+01 </wgt>
<wgt id='1909'> +8.0972299e+01 </wgt>
<wgt id='1910'> +8.0795658e+01 </wgt>
<wgt id='1911'> +8.0956239e+01 </wgt>
<wgt id='1912'> +8.0917676e+01 </wgt>
<wgt id='1913'> +8.0914652e+01 </wgt>
<wgt id='1914'> +8.0938476e+01 </wgt>
<wgt id='1915'> +8.0901675e+01 </wgt>
<wgt id='1916'> +8.0928560e+01 </wgt>
<wgt id='1917'> +8.1019785e+01 </wgt>
<wgt id='1918'> +8.0947565e+01 </wgt>
<wgt id='1919'> +8.0915765e+01 </wgt>
<wgt id='1920'> +8.0952550e+01 </wgt>
<wgt id='1921'> +8.0947403e+01 </wgt>
<wgt id='1922'> +8.0961594e+01 </wgt>
<wgt id='1923'> +8.0873095e+01 </wgt>
<wgt id='1924'> +8.0955977e+01 </wgt>
<wgt id='1925'> +8.0971939e+01 </wgt>
<wgt id='1926'> +8.1005539e+01 </wgt>
<wgt id='1927'> +8.0954412e+01 </wgt>
<wgt id='1928'> +8.0960044e+01 </wgt>
<wgt id='1929'> +8.0963158e+01 </wgt>
<wgt id='1930'> +8.0926065e+01 </wgt>
<wgt id='1931'> +8.0929044e+01 </wgt>
<wgt id='1932'> +8.0938723e+01 </wgt>
<wgt id='1933'> +8.0943755e+01 </wgt>
<wgt id='1934'> +8.0942142e+01 </wgt>
<wgt id='1935'> +8.0944676e+01 </wgt>
<wgt id='1936'> +8.0909409e+01 </wgt>
<wgt id='1937'> +8.0937002e+01 </wgt>
<wgt id='1938'> +8.0899892e+01 </wgt>
<wgt id='1939'> +8.0903108e+01 </wgt>
<wgt id='1940'> +8.0913354e+01 </wgt>
<wgt id='1941'> +8.0908065e+01 </wgt>
<wgt id='1942'> +8.0911365e+01 </wgt>
<wgt id='1943'> +8.0945567e+01 </wgt>
<wgt id='1944'> +8.0953793e+01 </wgt>
<wgt id='1945'> +8.0947150e+01 </wgt>
<wgt id='1946'> +8.0901138e+01 </wgt>
<wgt id='1947'> +8.0924242e+01 </wgt>
<wgt id='1948'> +8.0912659e+01 </wgt>
<wgt id='1949'> +8.0927982e+01 </wgt>
<wgt id='1950'> +8.0936636e+01 </wgt>
<wgt id='1951'> +8.0918170e+01 </wgt>
<wgt id='1952'> +8.0920215e+01 </wgt>
<wgt id='1953'> +8.0919000e+01 </wgt>
<wgt id='1954'> +8.0922196e+01 </wgt>
<wgt id='1955'> +8.0930835e+01 </wgt>
<wgt id='1956'> +8.0930245e+01 </wgt>
<wgt id='1957'> +8.0932062e+01 </wgt>
<wgt id='1958'> +8.0930821e+01 </wgt>
<wgt id='1959'> +8.0930896e+01 </wgt>
<wgt id='1960'> +8.0931389e+01 </wgt>
<wgt id='1961'> +8.0930672e+01 </wgt>
<wgt id='1962'> +8.0932255e+01 </wgt>
</rwgt>
</event>
<event npLO=" -1 " npNLO=" 1 ">
 7      1 +1.5146096e+02 3.88194630e+01 7.54677110e-03 1.28371960e-01
       -2 -1    0    0    0  501 +0.0000000000e+00 +0.0000000000e+00 +5.5383135000e+01 5.5383135000e+01 0.0000000000e+00 0.0000e+00 9.0000e+00
        2 -1    0    0  502    0 -0.0000000000e+00 -0.0000000000e+00 -1.1457717000e+02 1.1457717000e+02 0.0000000000e+00 0.0000e+00 9.0000e+00
       23  2    1    2    0    0 -9.7325572000e-01 -4.4601239000e+01 -7.0069466000e+01 1.2404198000e+02 9.2122007000e+01 0.0000e+00 0.0000e+00
       15  1    3    3    0    0 +2.7688538000e+01 -1.2494158000e+01 -7.3765309000e+01 7.9794973000e+01 1.7770000000e+00 0.0000e+00 9.0000e+00
      -15  1    3    3    0    0 -1.8557658000e+01 -1.3903220000e+01 +1.3496085000e+00 2.3295179000e+01 1.7770000000e+00 0.0000e+00 9.0000e+00
       22  1    3    3    0    0 -1.0104137000e+01 -1.8203861000e+01 +2.3462350000e+00 2.0951824000e+01 0.0000000000e+00 0.0000e+00 9.0000e+00
       21  1    1    2  502  501 +9.7325572000e-01 +4.4601239000e+01 +1.0875432000e+01 4.5918327000e+01 0.0000000000e+00 0.0000e+00 9.0000e+00
#aMCatNLO 1  0  0  6  2 0.16751960E+02 0.00000000E+00 -9  7  0 0.00000000E+00 0.00000000E+00 0.00000000E+00 0.00000000E+00 0.00000000E+00
<rwgt>
<wgt id='1001'> +1.5146000e+02 </wgt>
<wgt id='1002'> +1.5146000e+02 </wgt>
<wgt id='1003'> +1.4178000e+02 </wgt>
<wgt id='1004'> +1.5242000e+02 </wgt>
<wgt id='1005'> +1.5709000e+02 </wgt>
<wgt id='1006'> +1.5596000e+02 </wgt>
<wgt id='1007'> +1.4272000e+02 </wgt>
<wgt id='1008'> +1.5053000e+02 </wgt>
<wgt id='1009'> +1.5280000e+02 </wgt>
<wgt id='1010'> +1.4641000e+02 </wgt>
<wgt id='1011'> +1.5068000e+02 </wgt>
<wgt id='1012'> +1.4451000e+02 </wgt>
<wgt id='1013'> +1.5066000e+02 </wgt>
<wgt id='1014'> +1.5166000e+02 </wgt>
<wgt id='1015'> +1.5370000e+02 </wgt>
<wgt id='1016'> +1.5360000e+02 </wgt>
<wgt id='1017'> +1.5045000e+02 </wgt>
<wgt id='1018'> +1.4784000e+02 </wgt>
<wgt id='1019'> +1.5100000e+02 </wgt>
<wgt id='1020'> +1.4543000e+02 </wgt>
<wgt id='1021'> +1.5117000e+02 </wgt>
<wgt id='1022'> +1.5161000e+02 </wgt>
<wgt id='1023'> +1.5668000e+02 </wgt>
<wgt id='1024'> +1.4949000e+02 </wgt>
<wgt id='1025'> +1.5594000e+02 </wgt>
<wgt id='1026'> +1.5915000e+02 </wgt>
<wgt id='1027'> +1.5389000e+02 </wgt>
<wgt id='1028'> +1.5039000e+02 </wgt>
<wgt id='1029'> +1.5027000e+02 </wgt>
<wgt id='1030'> +1.5460000e+02 </wgt>
<wgt id='1031'> +1.5227000e+02 </wgt>
<wgt id='1032'> +1.5206000e+02 </wgt>
<wgt id='1033'> +1.5573000e+02 </wgt>
<wgt id='1034'> +1.4745000e+02 </wgt>
<wgt id='1035'> +1.5105000e+02 </wgt>
<wgt id='1036'> +1.5162000e+02 </wgt>
<wgt id='1037'> +1.5503000e+02 </wgt>
<wgt id='1038'> +1.5241000e+02 </wgt>
<wgt id='1039'> +1.4849000e+02 </wgt>
<wgt id='1040'> +1.4128000e+02 </wgt>
<wgt id='1041'> +1.5174000e+02 </wgt>
<wgt id='1042'> +1.5344000e+02 </wgt>
<wgt id='1043'> +1.5424000e+02 </wgt>
<wgt id='1044'> +1.5312000e+02 </wgt>
<wgt id='1045'> +1.5323000e+02 </wgt>
<wgt id='1046'> +1.4788000e+02 </wgt>
<wgt id='1047'> +1.5281000e+02 </wgt>
<wgt id='1048'> +1.5150000e+02 </wgt>
<wgt id='1049'> +1.4533000e+02 </wgt>
<wgt id='1050'> +1.5137000e+02 </wgt>
<wgt id='1051'> +1.5144000e+02 </wgt>
<wgt id='1052'> +1.5634000e+02 </wgt>
<wgt id='1053'> +1.5420000e+02 </wgt>
<wgt id='1054'> +1.5111000e+02 </wgt>
<wgt id='1055'> +1.4938000e+02 </wgt>
<wgt id='1056'> +1.5429000e+02 </wgt>
<wgt id='1057'> +1.5401000e+02 </wgt>
<wgt id='1058'> +1.4930000e+02 </wgt>
<wgt id='1059'> +1.5486000e+02 </wgt>
<wgt id='1060'> +1.5529000e+02 </wgt>
<wgt id='1061'> +1.5250000e+02 </wgt>
<wgt id='1062'> +1.5144000e+02 </wgt>
<wgt id='1063'> +1.5041000e+02 </wgt>
<wgt id='1064'> +1.5254000e+02 </wgt>
<wgt id='1065'> +1.5289000e+02 </wgt>
<wgt id='1066'> +1.4070000e+02 </wgt>
<wgt id='1067'> +1.5367000e+02 </wgt>
<wgt id='1068'> +1.5390000e+02 </wgt>
<wgt id='1069'> +1.5007000e+02 </wgt>
<wgt id='1070'> +1.5142000e+02 </wgt>
<wgt id='1071'> +1.4951000e+02 </wgt>
<wgt id='1072'> +1.5000000e+02 </wgt>
<wgt id='1073'> +1.5291000e+02 </wgt>
<wgt id='1074'> +1.4843000e+02 </wgt>
<wgt id='1075'> +1.4222000e+02 </wgt>
<wgt id='1076'> +1.5921000e+02 </wgt>
<wgt id='1077'> +1.5329000e+02 </wgt>
<wgt id='1078'> +1.5060000e+02 </wgt>
<wgt id='1079'> +1.5253000e+02 </wgt>
<wgt id='1080'> +1.4990000e+02 </wgt>
<wgt id='1081'> +1.4882000e+02 </wgt>
<wgt id='1082'> +1.5382000e+02 </wgt>
<wgt id='1083'> +1.5452000e+02 </wgt>
<wgt id='1084'> +1.5539000e+02 </wgt>
<wgt id='1085'> +1.4964000e+02 </wgt>
<wgt id='1086'> +1.5380000e+02 </wgt>
<wgt id='1087'> +1.5346000e+02 </wgt>
<wgt id='1088'> +1.5160000e+02 </wgt>
<wgt id='1089'> +1.5453000e+02 </wgt>
<wgt id='1090'> +1.5471000e+02 </wgt>
<wgt id='1091'> +1.5061000e+02 </wgt>
<wgt id='1092'> +1.5606000e+02 </wgt>
<wgt id='1093'> +1.5001000e+02 </wgt>
<wgt id='1094'> +1.4873000e+02 </wgt>
<wgt id='1095'> +1.5024000e+02 </wgt>
<wgt id='1096'> +1.5136000e+02 </wgt>
<wgt id='1097'> +1.4913000e+02 </wgt>
<wgt id='1098'> +1.5067000e+02 </wgt>
<wgt id='1099'> +1.5188000e+02 </wgt>
<wgt id='1100'> +1.5528000e+02 </wgt>
<wgt id='1101'> +1.5264000e+02 </wgt>
<wgt id='1102'> +1.4696000e+02 </wgt>
<wgt id='1103'> +1.4852000e+02 </wgt>
<wgt id='1104'> +1.5408000e+02 </wgt>
<wgt id='1105'> +1.5146096e+02 </wgt>
<wgt id='1106'> +6.5812716e+01 </wgt>
<wgt id='1107'> +8.9259259e+01 </wgt>
<wgt id='1108'> +8.2352326e+01 </wgt>
<wgt id='1109'> +7.1573922e+01 </wgt>
<wgt id='1110'> +9.7054407e+01 </wgt>
<wgt id='1111'> +6.8072380e+01 </wgt>
<wgt id='1112'> +5.9156339e+01 </wgt>
<wgt id='1113'> +8.0234232e+01 </wgt>
<wgt id='1114'> +8.3463995e+01 </wgt>
<wgt id='1115'> +9.2155783e+01 </wgt>
<wgt id='1116'> +8.2640214e+01 </wgt>
<wgt id='1117'> +8.0286699e+01 </wgt>
<wgt id='1118'> +8.1584265e+01 </wgt>
<wgt id='1119'> +8.0856470e+01 </wgt>
<wgt id='1120'> +8.7426186e+01 </wgt>
<wgt id='1121'> +8.3578058e+01 </wgt>
<wgt id='1122'> +8.0663057e+01 </wgt>
<wgt id='1123'> +7.8904568e+01 </wgt>
<wgt id='1124'> +8.1428898e+01 </wgt>
<wgt id='1125'> +8.4249930e+01 </wgt>
<wgt id='1126'> +7.9587454e+01 </wgt>
<wgt id='1127'> +8.2451854e+01 </wgt>
<wgt id='1128'> +8.4850401e+01 </wgt>
<wgt id='1129'> +8.3806596e+01 </wgt>
<wgt id='1130'> +8.4027441e+01 </wgt>
<wgt id='1131'> +8.5080768e+01 </wgt>
<wgt id='1132'> +8.1012753e+01 </wgt>
<wgt id='1133'> +8.4302942e+01 </wgt>
<wgt id='1134'> +7.9104034e+01 </wgt>
<wgt id='1135'> +8.1610186e+01 </wgt>
<wgt id='1136'> +8.5065169e+01 </wgt>
<wgt id='1137'> +8.5188567e+01 </wgt>
<wgt id='1138'> +8.0671282e+01 </wgt>
<wgt id='1139'> +8.0501841e+01 </wgt>
<wgt id='1140'> +8.7868965e+01 </wgt>
<wgt id='1141'> +8.4977693e+01 </wgt>
<wgt id='1142'> +8.2597024e+01 </wgt>
<wgt id='1143'> +8.5590396e+01 </wgt>
<wgt id='1144'> +8.3965377e+01 </wgt>
<wgt id='1145'> +8.7206601e+01 </wgt>
<wgt id='1146'> +8.0684680e+01 </wgt>
<wgt id='1147'> +8.4252913e+01 </wgt>
<wgt id='1148'> +8.0354018e+01 </wgt>
<wgt id='1149'> +8.5287858e+01 </wgt>
<wgt id='1150'> +8.3270855e+01 </wgt>
<wgt id='1151'> +8.2701260e+01 </wgt>
<wgt id='1152'> +8.1787033e+01 </wgt>
<wgt id='1153'> +8.3410828e+01 </wgt>
<wgt id='1154'> +8.6100091e+01 </wgt>
<wgt id='1155'> +8.4129830e+01 </wgt>
<wgt id='1156'> +8.4899430e+01 </wgt>
<wgt id='1157'> +8.5239348e+01 </wgt>
<wgt id='1158'> +8.6116309e+01 </wgt>
<wgt id='1159'> +8.6280778e+01 </wgt>
<wgt id='1160'> +8.7080625e+01 </wgt>
<wgt id='1161'> +8.3990828e+01 </wgt>
<wgt id='1162'> +8.3086760e+01 </wgt>
<wgt id='1163'> +8.5748547e+01 </wgt>
<wgt id='1164'> +8.4249284e+01 </wgt>
<wgt id='1165'> +8.2910988e+01 </wgt>
<wgt id='1166'> +8.1390820e+01 </wgt>
<wgt id='1167'> +8.3646199e+01 </wgt>
<wgt id='1168'> +8.5173371e+01 </wgt>
<wgt id='1169'> +8.7039359e+01 </wgt>
<wgt id='1170'> +8.2048045e+01 </wgt>
<wgt id='1171'> +8.4853116e+01 </wgt>
<wgt id='1172'> +8.1061870e+01 </wgt>
<wgt id='1173'> +8.3442810e+01 </wgt>
<wgt id='1174'> +8.6952993e+01 </wgt>
<wgt id='1175'> +8.3691286e+01 </wgt>
<wgt id='1176'> +8.2213031e+01 </wgt>
<wgt id='1177'> +8.5300687e+01 </wgt>
<wgt id='1178'> +8.0932120e+01 </wgt>
<wgt id='1179'> +8.5449085e+01 </wgt>
<wgt id='1180'> +8.7875490e+01 </wgt>
<wgt id='1181'> +8.7052482e+01 </wgt>
<wgt id='1182'> +8.5336173e+01 </wgt>
<wgt id='1183'> +8.4339497e+01 </wgt>
<wgt id='1184'> +8.3243705e+01 </wgt>
<wgt id='1185'> +8.0982971e+01 </wgt>
<wgt id='1186'> +8.6723969e+01 </wgt>
<wgt id='1187'> +7.6695474e+01 </wgt>
<wgt id='1188'> +7.9240314e+01 </wgt>
<wgt id='1189'> +8.1691856e+01 </wgt>
<wgt id='1190'> +8.8424158e+01 </wgt>
<wgt id='1191'> +7.9159339e+01 </wgt>
<wgt id='1192'> +8.2869618e+01 </wgt>
<wgt id='1193'> +8.2779902e+01 </wgt>
<wgt id='1194'> +8.6434861e+01 </wgt>
<wgt id='1195'> +8.2550772e+01 </wgt>
<wgt id='1196'> +8.4027441e+01 </wgt>
<wgt id='1197'> +8.5895747e+01 </wgt>
<wgt id='1198'> +8.1354566e+01 </wgt>
<wgt id='1199'> +8.2063615e+01 </wgt>
<wgt id='1200'> +8.5815143e+01 </wgt>
<wgt id='1201'> +7.8236953e+01 </wgt>
<wgt id='1202'> +8.5150950e+01 </wgt>
<wgt id='1203'> +7.9415169e+01 </wgt>
<wgt id='1204'> +8.2773191e+01 </wgt>
<wgt id='1205'> +8.3158557e+01 </wgt>
<wgt id='1206'> +8.1377531e+01 </wgt>
<wgt id='1207'> +8.1717461e+01 </wgt>
<wgt id='1208'> +8.3864179e+01 </wgt>
<wgt id='1209'> +8.1514224e+01 </wgt>
<wgt id='1210'> +8.4156033e+01 </wgt>
<wgt id='1211'> +8.6455601e+01 </wgt>
<wgt id='1212'> +8.3020710e+01 </wgt>
<wgt id='1213'> +8.2139042e+01 </wgt>
<wgt id='1214'> +8.2078032e+01 </wgt>
<wgt id='1215'> +7.8827439e+01 </wgt>
<wgt id='1216'> +8.2872778e+01 </wgt>
<wgt id='1217'> +8.2786204e+01 </wgt>
<wgt id='1218'> +8.3022464e+01 </wgt>
<wgt id='1219'> +8.2836898e+01 </wgt>
<wgt id='1220'> +8.3233769e+01 </wgt>
<wgt id='1221'> +8.2881348e+01 </wgt>
<wgt id='1222'> +8.2649983e+01 </wgt>
<wgt id='1223'> +8.2967603e+01 </wgt>
<wgt id='1224'> +8.2559524e+01 </wgt>
<wgt id='1225'> +8.3102857e+01 </wgt>
<wgt id='1226'> +8.2019336e+01 </wgt>
<wgt id='1227'> +8.2781675e+01 </wgt>
<wgt id='1228'> +8.3074067e+01 </wgt>
<wgt id='1229'> +8.2980007e+01 </wgt>
<wgt id='1230'> +8.3510099e+01 </wgt>
<wgt id='1231'> +8.1996106e+01 </wgt>
<wgt id='1232'> +8.3275864e+01 </wgt>
<wgt id='1233'> +8.2628362e+01 </wgt>
<wgt id='1234'> +8.3221095e+01 </wgt>
<wgt id='1235'> +8.2694181e+01 </wgt>
<wgt id='1236'> +8.2041339e+01 </wgt>
<wgt id='1237'> +8.3793802e+01 </wgt>
<wgt id='1238'> +8.3078340e+01 </wgt>
<wgt id='1239'> +8.3062934e+01 </wgt>
<wgt id='1240'> +8.3139139e+01 </wgt>
<wgt id='1241'> +8.2101808e+01 </wgt>
<wgt id='1242'> +8.2709873e+01 </wgt>
<wgt id='1243'> +8.3145131e+01 </wgt>
<wgt id='1244'> +8.2793191e+01 </wgt>
<wgt id='1245'> +8.3569398e+01 </wgt>
<wgt id='1246'> +8.2720910e+01 </wgt>
<wgt id='1247'> +8.2754366e+01 </wgt>
<wgt id='1248'> +8.2539855e+01 </wgt>
<wgt id='1249'> +8.3278156e+01 </wgt>
<wgt id='1250'> +8.3099641e+01 </wgt>
<wgt id='1251'> +8.2879027e+01 </wgt>
<wgt id='1252'> +8.2943389e+01 </wgt>
<wgt id='1253'> +8.2662627e+01 </wgt>
<wgt id='1254'> +8.2876965e+01 </wgt>
<wgt id='1255'> +8.2734724e+01 </wgt>
<wgt id='1256'> +8.2956663e+01 </wgt>
<wgt id='1257'> +8.2404598e+01 </wgt>
<wgt id='1258'> +8.2983836e+01 </wgt>
<wgt id='1259'> +8.2666471e+01 </wgt>
<wgt id='1260'> +8.2811389e+01 </wgt>
<wgt id='1261'> +8.3003622e+01 </wgt>
<wgt id='1262'> +8.2937888e+01 </wgt>
<wgt id='1263'> +8.2495411e+01 </wgt>
<wgt id='1264'> +8.2726105e+01 </wgt>
<wgt id='1265'> +8.3319686e+01 </wgt>
<wgt id='1266'> +8.2859585e+01 </wgt>
<wgt id='1267'> +8.2859498e+01 </wgt>
<wgt id='1268'> +8.2869688e+01 </wgt>
<wgt id='1269'> +8.2771284e+01 </wgt>
<wgt id='1270'> +8.2692573e+01 </wgt>
<wgt id='1271'> +8.2819210e+01 </wgt>
<wgt id='1272'> +8.3135623e+01 </wgt>
<wgt id='1273'> +8.2826511e+01 </wgt>
<wgt id='1274'> +8.2653035e+01 </wgt>
<wgt id='1275'> +8.2745865e+01 </wgt>
<wgt id='1276'> +8.2987668e+01 </wgt>
<wgt id='1277'> +8.2962708e+01 </wgt>
<wgt id='1278'> +8.2890895e+01 </wgt>
<wgt id='1279'> +8.2904482e+01 </wgt>
<wgt id='1280'> +8.2957188e+01 </wgt>
<wgt id='1281'> +8.2931337e+01 </wgt>
<wgt id='1282'> +8.2909331e+01 </wgt>
<wgt id='1283'> +8.2780789e+01 </wgt>
<wgt id='1284'> +8.2918805e+01 </wgt>
<wgt id='1285'> +8.2796525e+01 </wgt>
<wgt id='1286'> +8.2833229e+01 </wgt>
<wgt id='1287'> +8.2958399e+01 </wgt>
<wgt id='1288'> +8.2780509e+01 </wgt>
<wgt id='1289'> +8.2895960e+01 </wgt>
<wgt id='1290'> +8.2901773e+01 </wgt>
<wgt id='1291'> +8.2793936e+01 </wgt>
<wgt id='1292'> +8.2972638e+01 </wgt>
<wgt id='1293'> +8.2826482e+01 </wgt>
<wgt id='1294'> +8.2835628e+01 </wgt>
<wgt id='1295'> +8.2799884e+01 </wgt>
<wgt id='1296'> +8.2985716e+01 </wgt>
<wgt id='1297'> +8.2876060e+01 </wgt>
<wgt id='1298'> +8.2864117e+01 </wgt>
<wgt id='1299'> +8.2880567e+01 </wgt>
<wgt id='1300'> +8.2922913e+01 </wgt>
<wgt id='1301'> +8.2932446e+01 </wgt>
<wgt id='1302'> +8.2883507e+01 </wgt>
<wgt id='1303'> +8.2864210e+01 </wgt>
<wgt id='1304'> +8.2860249e+01 </wgt>
<wgt id='1305'> +8.2907564e+01 </wgt>
<wgt id='1306'> +8.2845501e+01 </wgt>
<wgt id='1307'> +8.2908577e+01 </wgt>
<wgt id='1308'> +8.2850836e+01 </wgt>
<wgt id='1309'> +8.2962044e+01 </wgt>
<wgt id='1310'> +8.2792467e+01 </wgt>
<wgt id='1311'> +8.2837868e+01 </wgt>
<wgt id='1312'> +8.2953152e+01 </wgt>
<wgt id='1313'> +8.2928366e+01 </wgt>
<wgt id='1314'> +8.2825264e+01 </wgt>
<wgt id='1315'> +8.2879886e+01 </wgt>
<wgt id='1316'> +8.2937279e+01 </wgt>
<wgt id='1317'> +8.0163959e+01 </wgt>
<wgt id='1318'> +8.5937979e+01 </wgt>
<wgt id='1319'> +8.9395757e+01 </wgt>
<wgt id='1320'> +7.9482079e+01 </wgt>
<wgt id='1321'> +7.9617147e+01 </wgt>
<wgt id='1322'> +8.0465925e+01 </wgt>
<wgt id='1323'> +7.9512584e+01 </wgt>
<wgt id='1324'> +7.9724026e+01 </wgt>
<wgt id='1325'> +7.9914917e+01 </wgt>
<wgt id='1326'> +7.9767037e+01 </wgt>
<wgt id='1327'> +7.9281671e+01 </wgt>
<wgt id='1328'> +8.1614646e+01 </wgt>
<wgt id='1329'> +7.8126167e+01 </wgt>
<wgt id='1330'> +8.0929175e+01 </wgt>
<wgt id='1331'> +7.9767658e+01 </wgt>
<wgt id='1332'> +7.9392019e+01 </wgt>
<wgt id='1333'> +7.7964907e+01 </wgt>
<wgt id='1334'> +7.9733277e+01 </wgt>
<wgt id='1335'> +8.1200434e+01 </wgt>
<wgt id='1336'> +7.6997633e+01 </wgt>
<wgt id='1337'> +8.1863094e+01 </wgt>
<wgt id='1338'> +7.6821262e+01 </wgt>
<wgt id='1339'> +8.0079891e+01 </wgt>
<wgt id='1340'> +7.8730703e+01 </wgt>
<wgt id='1341'> +7.9904949e+01 </wgt>
<wgt id='1342'> +7.8513905e+01 </wgt>
<wgt id='1343'> +8.0369674e+01 </wgt>
<wgt id='1344'> +7.8426513e+01 </wgt>
<wgt id='1345'> +8.0087245e+01 </wgt>
<wgt id='1346'> +7.9015017e+01 </wgt>
<wgt id='1347'> +7.9833328e+01 </wgt>
<wgt id='1348'> +7.8969948e+01 </wgt>
<wgt id='1349'> +7.8915110e+01 </wgt>
<wgt id='1350'> +7.9674898e+01 </wgt>
<wgt id='1351'> +7.8873085e+01 </wgt>
<wgt id='1352'> +8.0255124e+01 </wgt>
<wgt id='1353'> +8.0024345e+01 </wgt>
<wgt id='1354'> +7.8284467e+01 </wgt>
<wgt id='1355'> +7.8776795e+01 </wgt>
<wgt id='1356'> +8.0346056e+01 </wgt>
<wgt id='1357'> +7.9828742e+01 </wgt>
<wgt id='1358'> +7.8449362e+01 </wgt>
<wgt id='1359'> +7.8187992e+01 </wgt>
<wgt id='1360'> +7.9837464e+01 </wgt>
<wgt id='1361'> +8.0393822e+01 </wgt>
<wgt id='1362'> +7.8627735e+01 </wgt>
<wgt id='1363'> +7.9859238e+01 </wgt>
<wgt id='1364'> +7.8863836e+01 </wgt>
<wgt id='1365'> +7.8727747e+01 </wgt>
<wgt id='1366'> +7.8673804e+01 </wgt>
<wgt id='1367'> +7.8855461e+01 </wgt>
<wgt id='1368'> +7.8909589e+01 </wgt>
<wgt id='1369'> +7.8885981e+01 </wgt>
<wgt id='1370'> +7.8749067e+01 </wgt>
<wgt id='1371'> +7.7966869e+01 </wgt>
<wgt id='1372'> +7.8529850e+01 </wgt>
<wgt id='1373'> +7.9147587e+01 </wgt>
<wgt id='1374'> +7.8843246e+01 </wgt>
<wgt id='1375'> +7.7635141e+01 </wgt>
<wgt id='1376'> +8.2251353e+01 </wgt>
<wgt id='1377'> +7.6643202e+01 </wgt>
<wgt id='1378'> +8.2318437e+01 </wgt>
<wgt id='1379'> +8.2194749e+01 </wgt>
<wgt id='1380'> +7.9118098e+01 </wgt>
<wgt id='1381'> +8.5470654e+01 </wgt>
<wgt id='1382'> +7.0353398e+01 </wgt>
<wgt id='1383'> +7.6881166e+01 </wgt>
<wgt id='1384'> +8.1286785e+01 </wgt>
<wgt id='1385'> +8.1867064e+01 </wgt>
<wgt id='1386'> +8.2317257e+01 </wgt>
<wgt id='1387'> +8.1365051e+01 </wgt>
<wgt id='1388'> +8.1613488e+01 </wgt>
<wgt id='1389'> +8.2293796e+01 </wgt>
<wgt id='1390'> +8.2438768e+01 </wgt>
<wgt id='1391'> +8.1191785e+01 </wgt>
<wgt id='1392'> +8.1677696e+01 </wgt>
<wgt id='1393'> +8.1999972e+01 </wgt>
<wgt id='1394'> +8.1947373e+01 </wgt>
<wgt id='1395'> +8.1764933e+01 </wgt>
<wgt id='1396'> +8.1805033e+01 </wgt>
<wgt id='1397'> +8.1890587e+01 </wgt>
<wgt id='1398'> +8.1713693e+01 </wgt>
<wgt id='1399'> +8.1967452e+01 </wgt>
<wgt id='1400'> +8.2326043e+01 </wgt>
<wgt id='1401'> +8.1503360e+01 </wgt>
<wgt id='1402'> +8.2395606e+01 </wgt>
<wgt id='1403'> +8.1624688e+01 </wgt>
<wgt id='1404'> +8.0801463e+01 </wgt>
<wgt id='1405'> +8.2393078e+01 </wgt>
<wgt id='1406'> +8.1280838e+01 </wgt>
<wgt id='1407'> +8.2911561e+01 </wgt>
<wgt id='1408'> +8.1431191e+01 </wgt>
<wgt id='1409'> +8.2739567e+01 </wgt>
<wgt id='1410'> +8.2108292e+01 </wgt>
<wgt id='1411'> +8.1227344e+01 </wgt>
<wgt id='1412'> +8.2549435e+01 </wgt>
<wgt id='1413'> +8.0973044e+01 </wgt>
<wgt id='1414'> +8.2005146e+01 </wgt>
<wgt id='1415'> +8.1809027e+01 </wgt>
<wgt id='1416'> +8.2084410e+01 </wgt>
<wgt id='1417'> +8.1789908e+01 </wgt>
<wgt id='1418'> +8.1588443e+01 </wgt>
<wgt id='1419'> +8.2481931e+01 </wgt>
<wgt id='1420'> +8.1612979e+01 </wgt>
<wgt id='1421'> +8.1778190e+01 </wgt>
<wgt id='1422'> +8.1974547e+01 </wgt>
<wgt id='1423'> +8.1797315e+01 </wgt>
<wgt id='1424'> +8.2268216e+01 </wgt>
<wgt id='1425'> +8.1103688e+01 </wgt>
<wgt id='1426'> +8.2721668e+01 </wgt>
<wgt id='1427'> +8.2329229e+01 </wgt>
<wgt id='1428'> +8.1611786e+01 </wgt>
<wgt id='1429'> +8.0975005e+01 </wgt>
<wgt id='1430'> +8.2631699e+01 </wgt>
<wgt id='1431'> +8.2702210e+01 </wgt>
<wgt id='1432'> +8.2602096e+01 </wgt>
<wgt id='1433'> +8.2991933e+01 </wgt>
<wgt id='1434'> +8.1667338e+01 </wgt>
<wgt id='1435'> +8.2182255e+01 </wgt>
<wgt id='1436'> +6.8264464e+01 </wgt>
<wgt id='1437'> +6.8379211e+01 </wgt>
<wgt id='1438'> +6.7985080e+01 </wgt>
<wgt id='1439'> +6.8266720e+01 </wgt>
<wgt id='1440'> +6.8230699e+01 </wgt>
<wgt id='1441'> +6.8628496e+01 </wgt>
<wgt id='1442'> +6.8127976e+01 </wgt>
<wgt id='1443'> +6.8537382e+01 </wgt>
<wgt id='1444'> +6.7919365e+01 </wgt>
<wgt id='1445'> +6.7627056e+01 </wgt>
<wgt id='1446'> +6.8558619e+01 </wgt>
<wgt id='1447'> +6.8324386e+01 </wgt>
<wgt id='1448'> +6.8033665e+01 </wgt>
<wgt id='1449'> +6.8507640e+01 </wgt>
<wgt id='1450'> +6.8324881e+01 </wgt>
<wgt id='1451'> +6.8310178e+01 </wgt>
<wgt id='1452'> +6.7995303e+01 </wgt>
<wgt id='1453'> +6.8192721e+01 </wgt>
<wgt id='1454'> +6.8420293e+01 </wgt>
<wgt id='1455'> +6.8014941e+01 </wgt>
<wgt id='1456'> +6.8202569e+01 </wgt>
<wgt id='1457'> +6.8480474e+01 </wgt>
<wgt id='1458'> +6.8490980e+01 </wgt>
<wgt id='1459'> +6.8640091e+01 </wgt>
<wgt id='1460'> +6.8298559e+01 </wgt>
<wgt id='1461'> +6.8836218e+01 </wgt>
<wgt id='1462'> +6.8293442e+01 </wgt>
<wgt id='1463'> +6.8205869e+01 </wgt>
<wgt id='1464'> +6.7884087e+01 </wgt>
<wgt id='1465'> +8.3440387e+01 </wgt>
<wgt id='1466'> +7.7348284e+01 </wgt>
<wgt id='1467'> +7.7203597e+01 </wgt>
<wgt id='1468'> +7.6833076e+01 </wgt>
<wgt id='1469'> +7.8668222e+01 </wgt>
<wgt id='1470'> +7.7095461e+01 </wgt>
<wgt id='1471'> +7.7361887e+01 </wgt>
<wgt id='1472'> +7.6414643e+01 </wgt>
<wgt id='1473'> +7.7976053e+01 </wgt>
<wgt id='1474'> +7.8017781e+01 </wgt>
<wgt id='1475'> +7.6972147e+01 </wgt>
<wgt id='1476'> +7.6803753e+01 </wgt>
<wgt id='1477'> +7.6594360e+01 </wgt>
<wgt id='1478'> +7.7102909e+01 </wgt>
<wgt id='1479'> +7.7884717e+01 </wgt>
<wgt id='1480'> +7.7266153e+01 </wgt>
<wgt id='1481'> +7.7143416e+01 </wgt>
<wgt id='1482'> +7.6963052e+01 </wgt>
<wgt id='1483'> +7.7552169e+01 </wgt>
<wgt id='1484'> +7.8219872e+01 </wgt>
<wgt id='1485'> +7.6865491e+01 </wgt>
<wgt id='1486'> +7.7575565e+01 </wgt>
<wgt id='1487'> +7.6910313e+01 </wgt>
<wgt id='1488'> +7.6757926e+01 </wgt>
<wgt id='1489'> +7.7773477e+01 </wgt>
<wgt id='1490'> +7.7378781e+01 </wgt>
<wgt id='1491'> +7.7251147e+01 </wgt>
<wgt id='1492'> +7.7213000e+01 </wgt>
<wgt id='1493'> +7.7328632e+01 </wgt>
<wgt id='1494'> +7.7152252e+01 </wgt>
<wgt id='1495'> +7.7352666e+01 </wgt>
<wgt id='1496'> +7.7309298e+01 </wgt>
<wgt id='1497'> +7.7436595e+01 </wgt>
<wgt id='1498'> +7.6828013e+01 </wgt>
<wgt id='1499'> +7.6891582e+01 </wgt>
<wgt id='1500'> +7.7848171e+01 </wgt>
<wgt id='1501'> +7.7600013e+01 </wgt>
<wgt id='1502'> +7.7107506e+01 </wgt>
<wgt id='1503'> +7.7315794e+01 </wgt>
<wgt id='1504'> +7.7351970e+01 </wgt>
<wgt id='1505'> +7.7621674e+01 </wgt>
<wgt id='1506'> +7.7231991e+01 </wgt>
<wgt id='1507'> +7.7430216e+01 </wgt>
<wgt id='1508'> +7.7264969e+01 </wgt>
<wgt id='1509'> +7.7271383e+01 </wgt>
<wgt id='1510'> +7.7355112e+01 </wgt>
<wgt id='1511'> +7.7555802e+01 </wgt>
<wgt id='1512'> +7.7622449e+01 </wgt>
<wgt id='1513'> +7.7260992e+01 </wgt>
<wgt id='1514'> +7.7391032e+01 </wgt>
<wgt id='1515'> +7.7390834e+01 </wgt>
<wgt id='1516'> +7.7461915e+01 </wgt>
<wgt id='1517'> +7.7252221e+01 </wgt>
<wgt id='1518'> +7.7504231e+01 </wgt>
<wgt id='1519'> +7.7295024e+01 </wgt>
<wgt id='1520'> +7.7299826e+01 </wgt>
<wgt id='1521'> +7.7529965e+01 </wgt>
<wgt id='1522'> +7.7322721e+01 </wgt>
<wgt id='1523'> +7.7266645e+01 </wgt>
<wgt id='1524'> +7.7457977e+01 </wgt>
<wgt id='1525'> +7.7462933e+01 </wgt>
<wgt id='1526'> +7.7355981e+01 </wgt>
<wgt id='1527'> +7.7448143e+01 </wgt>
<wgt id='1528'> +7.7362589e+01 </wgt>
<wgt id='1529'> +7.7308929e+01 </wgt>
<wgt id='1530'> +7.7418220e+01 </wgt>
<wgt id='1531'> +7.7357881e+01 </wgt>
<wgt id='1532'> +7.7312273e+01 </wgt>
<wgt id='1533'> +7.7310475e+01 </wgt>
<wgt id='1534'> +7.7382003e+01 </wgt>
<wgt id='1535'> +7.7346260e+01 </wgt>
<wgt id='1536'> +7.7386734e+01 </wgt>
<wgt id='1537'> +7.7328800e+01 </wgt>
<wgt id='1538'> +7.7308859e+01 </wgt>
<wgt id='1539'> +7.7313794e+01 </wgt>
<wgt id='1540'> +7.7386239e+01 </wgt>
<wgt id='1541'> +7.7357743e+01 </wgt>
<wgt id='1542'> +7.7302111e+01 </wgt>
<wgt id='1543'> +7.7361719e+01 </wgt>
<wgt id='1544'> +7.7334633e+01 </wgt>
<wgt id='1545'> +7.7349610e+01 </wgt>
<wgt id='1546'> +7.7341016e+01 </wgt>
<wgt id='1547'> +7.7350838e+01 </wgt>
<wgt id='1548'> +7.7346039e+01 </wgt>
<wgt id='1549'> +7.7365868e+01 </wgt>
<wgt id='1550'> +7.7365961e+01 </wgt>
<wgt id='1551'> +7.7315920e+01 </wgt>
<wgt id='1552'> +7.7368358e+01 </wgt>
<wgt id='1553'> +7.7341565e+01 </wgt>
<wgt id='1554'> +7.7320244e+01 </wgt>
<wgt id='1555'> +7.7320617e+01 </wgt>
<wgt id='1556'> +7.7327262e+01 </wgt>
<wgt id='1557'> +7.7313032e+01 </wgt>
<wgt id='1558'> +7.7360689e+01 </wgt>
<wgt id='1559'> +7.7329791e+01 </wgt>
<wgt id='1560'> +7.7353714e+01 </wgt>
<wgt id='1561'> +7.7318451e+01 </wgt>
<wgt id='1562'> +7.7345677e+01 </wgt>
<wgt id='1563'> +7.7358631e+01 </wgt>
<wgt id='1564'> +7.7329219e+01 </wgt>
<wgt id='1565'> +7.7343252e+01 </wgt>
<wgt id='1566'> +7.7339030e+01 </wgt>
<wgt id='1567'> +7.5073859e+01 </wgt>
<wgt id='1568'> +7.9571868e+01 </wgt>
<wgt id='1569'> +8.0803794e+01 </wgt>
<wgt id='1570'> +8.1279362e+01 </wgt>
<wgt id='1571'> +8.0310130e+01 </wgt>
<wgt id='1572'> +8.1402437e+01 </wgt>
<wgt id='1573'> +8.1676171e+01 </wgt>
<wgt id='1574'> +8.1763638e+01 </wgt>
<wgt id='1575'> +8.1260052e+01 </wgt>
<wgt id='1576'> +8.0744844e+01 </wgt>
<wgt id='1577'> +8.0775100e+01 </wgt>
<wgt id='1578'> +8.0923920e+01 </wgt>
<wgt id='1579'> +8.1018360e+01 </wgt>
<wgt id='1580'> +8.1350667e+01 </wgt>
<wgt id='1581'> +8.0587808e+01 </wgt>
<wgt id='1582'> +8.1231528e+01 </wgt>
<wgt id='1583'> +8.0218068e+01 </wgt>
<wgt id='1584'> +8.0954896e+01 </wgt>
<wgt id='1585'> +8.0441792e+01 </wgt>
<wgt id='1586'> +8.0730968e+01 </wgt>
<wgt id='1587'> +8.1463915e+01 </wgt>
<wgt id='1588'> +7.9476916e+01 </wgt>
<wgt id='1589'> +8.0915381e+01 </wgt>
<wgt id='1590'> +8.0974661e+01 </wgt>
<wgt id='1591'> +8.0405028e+01 </wgt>
<wgt id='1592'> +8.0942069e+01 </wgt>
<wgt id='1593'> +8.1213803e+01 </wgt>
<wgt id='1594'> +8.0994020e+01 </wgt>
<wgt id='1595'> +8.0719645e+01 </wgt>
<wgt id='1596'> +8.0716604e+01 </wgt>
<wgt id='1597'> +8.0938360e+01 </wgt>
<wgt id='1598'> +8.1200457e+01 </wgt>
<wgt id='1599'> +8.0926400e+01 </wgt>
<wgt id='1600'> +8.1199841e+01 </wgt>
<wgt id='1601'> +8.0991579e+01 </wgt>
<wgt id='1602'> +8.1386939e+01 </wgt>
<wgt id='1603'> +8.1005560e+01 </wgt>
<wgt id='1604'> +8.0965904e+01 </wgt>
<wgt id='1605'> +8.1357408e+01 </wgt>
<wgt id='1606'> +8.0723791e+01 </wgt>
<wgt id='1607'> +8.0448405e+01 </wgt>
<wgt id='1608'> +8.1114747e+01 </wgt>
<wgt id='1609'> +8.0453618e+01 </wgt>
<wgt id='1610'> +8.0712764e+01 </wgt>
<wgt id='1611'> +8.0800648e+01 </wgt>
<wgt id='1612'> +8.0849292e+01 </wgt>
<wgt id='1613'> +8.0727794e+01 </wgt>
<wgt id='1614'> +8.0705087e+01 </wgt>
<wgt id='1615'> +8.0381913e+01 </wgt>
<wgt id='1616'> +8.0602084e+01 </wgt>
<wgt id='1617'> +8.0708118e+01 </wgt>
<wgt id='1618'> +8.0749959e+01 </wgt>
<wgt id='1619'> +8.0669011e+01 </wgt>
<wgt id='1620'> +8.0703342e+01 </wgt>
<wgt id='1621'> +8.0865828e+01 </wgt>
<wgt id='1622'> +8.0752716e+01 </wgt>
<wgt id='1623'> +8.0733667e+01 </wgt>
<wgt id='1624'> +8.0775592e+01 </wgt>
<wgt id='1625'> +8.0902778e+01 </wgt>
<wgt id='1626'> +8.0826862e+01 </wgt>
<wgt id='1627'> +8.0808619e+01 </wgt>
<wgt id='1628'> +8.0805420e+01 </wgt>
<wgt id='1629'> +8.0801184e+01 </wgt>
<wgt id='1630'> +8.0836136e+01 </wgt>
<wgt id='1631'> +8.0885217e+01 </wgt>
<wgt id='1632'> +8.0816410e+01 </wgt>
<wgt id='1633'> +8.0822732e+01 </wgt>
<wgt id='1634'> +8.0742664e+01 </wgt>
<wgt id='1635'> +8.0791323e+01 </wgt>
<wgt id='1636'> +8.0813926e+01 </wgt>
<wgt id='1637'> +8.0741166e+01 </wgt>
<wgt id='1638'> +8.0844719e+01 </wgt>
<wgt id='1639'> +8.0862031e+01 </wgt>
<wgt id='1640'> +8.0832536e+01 </wgt>
<wgt id='1641'> +8.0837031e+01 </wgt>
<wgt id='1642'> +8.0796070e+01 </wgt>
<wgt id='1643'> +8.0814254e+01 </wgt>
<wgt id='1644'> +8.0796989e+01 </wgt>
<wgt id='1645'> +8.0828700e+01 </wgt>
<wgt id='1646'> +8.0782259e+01 </wgt>
<wgt id='1647'> +8.0827671e+01 </wgt>
<wgt id='1648'> +8.0838338e+01 </wgt>
<wgt id='1649'> +8.0831598e+01 </wgt>
<wgt id='1650'> +8.0800121e+01 </wgt>
<wgt id='1651'> +8.0826014e+01 </wgt>
<wgt id='1652'> +8.0766727e+01 </wgt>
<wgt id='1653'> +8.0753323e+01 </wgt>
<wgt id='1654'> +8.0786229e+01 </wgt>
<wgt id='1655'> +8.0782725e+01 </wgt>
<wgt id='1656'> +8.0765943e+01 </wgt>
<wgt id='1657'> +8.0809283e+01 </wgt>
<wgt id='1658'> +8.0803401e+01 </wgt>
<wgt id='1659'> +8.0829264e+01 </wgt>
<wgt id='1660'> +8.0789376e+01 </wgt>
<wgt id='1661'> +8.0771944e+01 </wgt>
<wgt id='1662'> +8.0807534e+01 </wgt>
<wgt id='1663'> +8.0776158e+01 </wgt>
<wgt id='1664'> +8.0771838e+01 </wgt>
<wgt id='1665'> +8.0804443e+01 </wgt>
<wgt id='1666'> +8.0809909e+01 </wgt>
<wgt id='1667'> +8.0819881e+01 </wgt>
<wgt id='1668'> +8.0792953e+01 </wgt>
<wgt id='1669'> +8.0778287e+01 </wgt>
<wgt id='1670'> +7.8331133e+01 </wgt>
<wgt id='1671'> +8.3272025e+01 </wgt>
<wgt id='1672'> +7.7358762e+01 </wgt>
<wgt id='1673'> +7.7218953e+01 </wgt>
<wgt id='1674'> +7.6337952e+01 </wgt>
<wgt id='1675'> +7.7354711e+01 </wgt>
<wgt id='1676'> +7.9637714e+01 </wgt>
<wgt id='1677'> +7.7701054e+01 </wgt>
<wgt id='1678'> +7.7239278e+01 </wgt>
<wgt id='1679'> +7.7386206e+01 </wgt>
<wgt id='1680'> +7.7458833e+01 </wgt>
<wgt id='1681'> +7.7746490e+01 </wgt>
<wgt id='1682'> +7.7316535e+01 </wgt>
<wgt id='1683'> +7.6760072e+01 </wgt>
<wgt id='1684'> +7.7542611e+01 </wgt>
<wgt id='1685'> +7.7305672e+01 </wgt>
<wgt id='1686'> +7.6932777e+01 </wgt>
<wgt id='1687'> +7.7490086e+01 </wgt>
<wgt id='1688'> +7.7505260e+01 </wgt>
<wgt id='1689'> +7.7065515e+01 </wgt>
<wgt id='1690'> +7.7408184e+01 </wgt>
<wgt id='1691'> +7.7380021e+01 </wgt>
<wgt id='1692'> +7.7968144e+01 </wgt>
<wgt id='1693'> +7.7241848e+01 </wgt>
<wgt id='1694'> +7.7257739e+01 </wgt>
<wgt id='1695'> +7.7448915e+01 </wgt>
<wgt id='1696'> +7.7226282e+01 </wgt>
<wgt id='1697'> +7.7319115e+01 </wgt>
<wgt id='1698'> +7.7424627e+01 </wgt>
<wgt id='1699'> +7.7391207e+01 </wgt>
<wgt id='1700'> +7.7434876e+01 </wgt>
<wgt id='1701'> +7.7213380e+01 </wgt>
<wgt id='1702'> +7.7449998e+01 </wgt>
<wgt id='1703'> +7.5073859e+01 </wgt>
<wgt id='1704'> +7.9571868e+01 </wgt>
<wgt id='1705'> +8.0803456e+01 </wgt>
<wgt id='1706'> +8.0937899e+01 </wgt>
<wgt id='1707'> +8.1478212e+01 </wgt>
<wgt id='1708'> +8.0830329e+01 </wgt>
<wgt id='1709'> +7.8838443e+01 </wgt>
<wgt id='1710'> +8.0519977e+01 </wgt>
<wgt id='1711'> +8.0887991e+01 </wgt>
<wgt id='1712'> +8.0746922e+01 </wgt>
<wgt id='1713'> +8.0910012e+01 </wgt>
<wgt id='1714'> +8.0289486e+01 </wgt>
<wgt id='1715'> +8.0690617e+01 </wgt>
<wgt id='1716'> +8.1044595e+01 </wgt>
<wgt id='1717'> +8.0799236e+01 </wgt>
<wgt id='1718'> +8.0797600e+01 </wgt>
<wgt id='1719'> +8.0677029e+01 </wgt>
<wgt id='1720'> +8.1080401e+01 </wgt>
<wgt id='1721'> +8.0781098e+01 </wgt>
<wgt id='1722'> +8.0606482e+01 </wgt>
<wgt id='1723'> +8.0849207e+01 </wgt>
<wgt id='1724'> +8.1008897e+01 </wgt>
<wgt id='1725'> +7.9670184e+01 </wgt>
<wgt id='1726'> +8.0817168e+01 </wgt>
<wgt id='1727'> +8.1161055e+01 </wgt>
<wgt id='1728'> +8.0847446e+01 </wgt>
<wgt id='1729'> +8.0703372e+01 </wgt>
<wgt id='1730'> +8.0842822e+01 </wgt>
<wgt id='1731'> +8.0647399e+01 </wgt>
<wgt id='1732'> +8.1002192e+01 </wgt>
<wgt id='1733'> +8.0847809e+01 </wgt>
<wgt id='1734'> +8.0557743e+01 </wgt>
<wgt id='1735'> +8.1936405e+01 </wgt>
<wgt id='1736'> +7.8331133e+01 </wgt>
<wgt id='1737'> +8.3272025e+01 </wgt>
<wgt id='1738'> +8.9296909e+01 </wgt>
<wgt id='1739'> +8.9525627e+01 </wgt>
<wgt id='1740'> +8.9069647e+01 </wgt>
<wgt id='1741'> +8.9154254e+01 </wgt>
<wgt id='1742'> +8.9439378e+01 </wgt>
<wgt id='1743'> +8.9500670e+01 </wgt>
<wgt id='1744'> +8.9093166e+01 </wgt>
<wgt id='1745'> +8.8957270e+01 </wgt>
<wgt id='1746'> +8.9623952e+01 </wgt>
<wgt id='1747'> +8.9632170e+01 </wgt>
<wgt id='1748'> +8.8960048e+01 </wgt>
<wgt id='1749'> +8.9622489e+01 </wgt>
<wgt id='1750'> +8.8977220e+01 </wgt>
<wgt id='1751'> +8.9247874e+01 </wgt>
<wgt id='1752'> +8.9342672e+01 </wgt>
<wgt id='1753'> +8.9082831e+01 </wgt>
<wgt id='1754'> +8.9423416e+01 </wgt>
<wgt id='1755'> +8.9174768e+01 </wgt>
<wgt id='1756'> +8.9388275e+01 </wgt>
<wgt id='1757'> +8.9012822e+01 </wgt>
<wgt id='1758'> +8.9572757e+01 </wgt>
<wgt id='1759'> +8.9729451e+01 </wgt>
<wgt id='1760'> +8.8789971e+01 </wgt>
<wgt id='1761'> +8.8761679e+01 </wgt>
<wgt id='1762'> +8.9530690e+01 </wgt>
<wgt id='1763'> +8.9381295e+01 </wgt>
<wgt id='1764'> +8.9313833e+01 </wgt>
<wgt id='1765'> +8.8564252e+01 </wgt>
<wgt id='1766'> +8.9927386e+01 </wgt>
<wgt id='1767'> +8.9296909e+01 </wgt>
<wgt id='1768'> +9.0904505e+01 </wgt>
<wgt id='1769'> +8.7350606e+01 </wgt>
<wgt id='1770'> +9.1145854e+01 </wgt>
<wgt id='1771'> +8.7955913e+01 </wgt>
<wgt id='1772'> +8.9526621e+01 </wgt>
<wgt id='1773'> +8.8902377e+01 </wgt>
<wgt id='1774'> +8.9105238e+01 </wgt>
<wgt id='1775'> +8.9494324e+01 </wgt>
<wgt id='1776'> +8.8284892e+01 </wgt>
<wgt id='1777'> +9.0303032e+01 </wgt>
<wgt id='1778'> +8.9404150e+01 </wgt>
<wgt id='1779'> +9.0248374e+01 </wgt>
<wgt id='1780'> +9.0125888e+01 </wgt>
<wgt id='1781'> +8.9935233e+01 </wgt>
<wgt id='1782'> +9.0180343e+01 </wgt>
<wgt id='1783'> +8.9728237e+01 </wgt>
<wgt id='1784'> +8.9735273e+01 </wgt>
<wgt id='1785'> +9.0172605e+01 </wgt>
<wgt id='1786'> +9.0070827e+01 </wgt>
<wgt id='1787'> +8.9836456e+01 </wgt>
<wgt id='1788'> +8.9479469e+01 </wgt>
<wgt id='1789'> +9.0410385e+01 </wgt>
<wgt id='1790'> +9.0262536e+01 </wgt>
<wgt id='1791'> +8.9641204e+01 </wgt>
<wgt id='1792'> +8.9930111e+01 </wgt>
<wgt id='1793'> +8.9977028e+01 </wgt>
<wgt id='1794'> +8.9795235e+01 </wgt>
<wgt id='1795'> +9.0109656e+01 </wgt>
<wgt id='1796'> +8.9826220e+01 </wgt>
<wgt id='1797'> +9.0023019e+01 </wgt>
<wgt id='1798'> +8.9891990e+01 </wgt>
<wgt id='1799'> +9.0000797e+01 </wgt>
<wgt id='1800'> +8.9989030e+01 </wgt>
<wgt id='1801'> +8.9916062e+01 </wgt>
<wgt id='1802'> +8.9168082e+01 </wgt>
<wgt id='1803'> +9.0655705e+01 </wgt>
<wgt id='1804'> +8.9640306e+01 </wgt>
<wgt id='1805'> +9.0286067e+01 </wgt>
<wgt id='1806'> +8.9567285e+01 </wgt>
<wgt id='1807'> +9.0180402e+01 </wgt>
<wgt id='1808'> +8.9583314e+01 </wgt>
<wgt id='1809'> +9.0263217e+01 </wgt>
<wgt id='1810'> +8.9877842e+01 </wgt>
<wgt id='1811'> +9.1703993e+01 </wgt>
<wgt id='1812'> +8.7486267e+01 </wgt>
<wgt id='1813'> +9.2009414e+01 </wgt>
<wgt id='1814'> +8.8375451e+01 </wgt>
<wgt id='1815'> +8.9371825e+01 </wgt>
<wgt id='1816'> +8.9393152e+01 </wgt>
<wgt id='1817'> +8.9723340e+01 </wgt>
<wgt id='1818'> +9.0249194e+01 </wgt>
<wgt id='1819'> +8.8195199e+01 </wgt>
<wgt id='1820'> +9.0271063e+01 </wgt>
<wgt id='1821'> +8.8821461e+01 </wgt>
<wgt id='1822'> +9.1733967e+01 </wgt>
<wgt id='1823'> +8.9557404e+01 </wgt>
<wgt id='1824'> +7.8684364e+01 </wgt>
<wgt id='1825'> +7.8652322e+01 </wgt>
<wgt id='1826'> +7.8620404e+01 </wgt>
<wgt id='1827'> +7.8588439e+01 </wgt>
<wgt id='1828'> +7.8556425e+01 </wgt>
<wgt id='1829'> +7.8524502e+01 </wgt>
<wgt id='1830'> +7.8492448e+01 </wgt>
<wgt id='1831'> +7.8460534e+01 </wgt>
<wgt id='1832'> +7.8428722e+01 </wgt>
<wgt id='1833'> +7.8396851e+01 </wgt>
<wgt id='1834'> +7.8364958e+01 </wgt>
<wgt id='1835'> +7.8333014e+01 </wgt>
<wgt id='1836'> +7.8301125e+01 </wgt>
<wgt id='1837'> +7.8269175e+01 </wgt>
<wgt id='1838'> +7.8237343e+01 </wgt>
<wgt id='1839'> +7.8205315e+01 </wgt>
<wgt id='1840'> +7.8173478e+01 </wgt>
<wgt id='1841'> +7.8141733e+01 </wgt>
<wgt id='1842'> +7.8109828e+01 </wgt>
<wgt id='1843'> +7.8077961e+01 </wgt>
<wgt id='1844'> +7.8046161e+01 </wgt>
<wgt id='1845'> +7.8014342e+01 </wgt>
<wgt id='1846'> +7.7982450e+01 </wgt>
<wgt id='1847'> +7.7950623e+01 </wgt>
<wgt id='1848'> +7.7918803e+01 </wgt>
<wgt id='1849'> +7.7887041e+01 </wgt>
<wgt id='1850'> +7.7855185e+01 </wgt>
<wgt id='1851'> +7.7823346e+01 </wgt>
<wgt id='1852'> +7.7791587e+01 </wgt>
<wgt id='1853'> +7.7759723e+01 </wgt>
<wgt id='1854'> +7.7727945e+01 </wgt>
<wgt id='1855'> +8.0486797e+01 </wgt>
<wgt id='1856'> +8.0943680e+01 </wgt>
<wgt id='1857'> +7.9992221e+01 </wgt>
<wgt id='1858'> +8.1081898e+01 </wgt>
<wgt id='1859'> +8.1351259e+01 </wgt>
<wgt id='1860'> +8.1440166e+01 </wgt>
<wgt id='1861'> +8.0952980e+01 </wgt>
<wgt id='1862'> +8.0442380e+01 </wgt>
<wgt id='1863'> +8.0459811e+01 </wgt>
<wgt id='1864'> +8.0605987e+01 </wgt>
<wgt id='1865'> +8.0695564e+01 </wgt>
<wgt id='1866'> +8.1048312e+01 </wgt>
<wgt id='1867'> +8.0279424e+01 </wgt>
<wgt id='1868'> +8.0918036e+01 </wgt>
<wgt id='1869'> +7.9904208e+01 </wgt>
<wgt id='1870'> +8.0618115e+01 </wgt>
<wgt id='1871'> +8.0142159e+01 </wgt>
<wgt id='1872'> +8.0406527e+01 </wgt>
<wgt id='1873'> +8.1141373e+01 </wgt>
<wgt id='1874'> +7.9175174e+01 </wgt>
<wgt id='1875'> +8.0609070e+01 </wgt>
<wgt id='1876'> +8.0652570e+01 </wgt>
<wgt id='1877'> +8.0084259e+01 </wgt>
<wgt id='1878'> +8.0630126e+01 </wgt>
<wgt id='1879'> +8.0889679e+01 </wgt>
<wgt id='1880'> +8.0664666e+01 </wgt>
<wgt id='1881'> +8.0390796e+01 </wgt>
<wgt id='1882'> +8.0413579e+01 </wgt>
<wgt id='1883'> +8.0625389e+01 </wgt>
<wgt id='1884'> +8.0874602e+01 </wgt>
<wgt id='1885'> +8.0602196e+01 </wgt>
<wgt id='1886'> +8.0894318e+01 </wgt>
<wgt id='1887'> +8.0668868e+01 </wgt>
<wgt id='1888'> +8.1061986e+01 </wgt>
<wgt id='1889'> +8.0688029e+01 </wgt>
<wgt id='1890'> +8.0644220e+01 </wgt>
<wgt id='1891'> +8.1040036e+01 </wgt>
<wgt id='1892'> +8.0405873e+01 </wgt>
<wgt id='1893'> +8.0131273e+01 </wgt>
<wgt id='1894'> +8.0791409e+01 </wgt>
<wgt id='1895'> +8.0138012e+01 </wgt>
<wgt id='1896'> +8.0394410e+01 </wgt>
<wgt id='1897'> +8.0483427e+01 </wgt>
<wgt id='1898'> +8.0538241e+01 </wgt>
<wgt id='1899'> +8.0409438e+01 </wgt>
<wgt id='1900'> +8.0387377e+01 </wgt>
<wgt id='1901'> +8.0070001e+01 </wgt>
<wgt id='1902'> +8.0283857e+01 </wgt>
<wgt id='1903'> +8.0394202e+01 </wgt>
<wgt id='1904'> +8.0432226e+01 </wgt>
<wgt id='1905'> +8.0353430e+01 </wgt>
<wgt id='1906'> +8.0384977e+01 </wgt>
<wgt id='1907'> +8.0548522e+01 </wgt>
<wgt id='1908'> +8.0435796e+01 </wgt>
<wgt id='1909'> +8.0417537e+01 </wgt>
<wgt id='1910'> +8.0460589e+01 </wgt>
<wgt id='1911'> +8.0581318e+01 </wgt>
<wgt id='1912'> +8.0510856e+01 </wgt>
<wgt id='1913'> +8.0494478e+01 </wgt>
<wgt id='1914'> +8.0489974e+01 </wgt>
<wgt id='1915'> +8.0486533e+01 </wgt>
<wgt id='1916'> +8.0520062e+01 </wgt>
<wgt id='1917'> +8.0566357e+01 </wgt>
<wgt id='1918'> +8.0496312e+01 </wgt>
<wgt id='1919'> +8.0507509e+01 </wgt>
<wgt id='1920'> +8.0425335e+01 </wgt>
<wgt id='1921'> +8.0474081e+01 </wgt>
<wgt id='1922'> +8.0494647e+01 </wgt>
<wgt id='1923'> +8.0425197e+01 </wgt>
<wgt id='1924'> +8.0526211e+01 </wgt>
<wgt id='1925'> +8.0544604e+01 </wgt>
<wgt id='1926'> +8.0515759e+01 </wgt>
<wgt id='1927'> +8.0518607e+01 </wgt>
<wgt id='1928'> +8.0478103e+01 </wgt>
<wgt id='1929'> +8.0497124e+01 </wgt>
<wgt id='1930'> +8.0480470e+01 </wgt>
<wgt id='1931'> +8.0513576e+01 </wgt>
<wgt id='1932'> +8.0465466e+01 </wgt>
<wgt id='1933'> +8.0511882e+01 </wgt>
<wgt id='1934'> +8.0521091e+01 </wgt>
<wgt id='1935'> +8.0512483e+01 </wgt>
<wgt id='1936'> +8.0485656e+01 </wgt>
<wgt id='1937'> +8.0509470e+01 </wgt>
<wgt id='1938'> +8.0449989e+01 </wgt>
<wgt id='1939'> +8.0435794e+01 </wgt>
<wgt id='1940'> +8.0469920e+01 </wgt>
<wgt id='1941'> +8.0468905e+01 </wgt>
<wgt id='1942'> +8.0447760e+01 </wgt>
<wgt id='1943'> +8.0490984e+01 </wgt>
<wgt id='1944'> +8.0484724e+01 </wgt>
<wgt id='1945'> +8.0511402e+01 </wgt>
<wgt id='1946'> +8.0470753e+01 </wgt>
<wgt id='1947'> +8.0453977e+01 </wgt>
<wgt id='1948'> +8.0491249e+01 </wgt>
<wgt id='1949'> +8.0457159e+01 </wgt>
<wgt id='1950'> +8.0455102e+01 </wgt>
<wgt id='1951'> +8.0488788e+01 </wgt>
<wgt id='1952'> +8.0493085e+01 </wgt>
<wgt id='1953'> +8.0501894e+01 </wgt>
<wgt id='1954'> +8.0477022e+01 </wgt>
<wgt id='1955'> +8.0462210e+01 </wgt>
<wgt id='1956'> +8.0486571e+01 </wgt>
<wgt id='1957'> +8.0487891e+01 </wgt>
<wgt id='1958'> +8.0486993e+01 </wgt>
<wgt id='1959'> +8.0487047e+01 </wgt>
<wgt id='1960'> +8.0487403e+01 </wgt>
<wgt id='1961'> +8.0486884e+01 </wgt>
<wgt id='1962'> +8.0488040e+01 </wgt>
</rwgt>
</event>
<event npLO=" -1 " npNLO=" 1 ">
 7      1 +1.5146096e+02 2.45745740e+01 7.54677110e-03 1.47927950e-01
        5 -1    0    0  502    0 +0.0000000000e+00 +0.0000000000e+00 +6.3389763000e+01 6.3389763000e+01 0.0000000000e+00 0.0000e+00 9.0000e+00
       21 -1    0    0  501  502 -0.0000000000e+00 -0.0000000000e+00 -8.6368136000e+01 8.6368136000e+01 0.0000000000e+00 0.0000e+00 9.0000e+00
       23  2    1    2    0    0 +1.1167271000e+00 -2.4549187000e+01 +2.2817320000e+01 9.7785261000e+01 9.1855416000e+01 0.0000e+00 0.0000e+00
       13  1    3    3    0    0 +2.3741048000e+01 -9.4721697000e+00 -3.1020090000e+00 2.5748433000e+01 0.0000000000e+00 0.0000e+00 9.0000e+00
      -13  1    3    3    0    0 -4.1141152000e+01 -7.4219778000e+00 +3.0169013000e+01 5.1554335000e+01 0.0000000000e+00 0.0000e+00 9.0000e+00
       22  1    3    3    0    0 +1.8516832000e+01 -7.6550397000e+00 -4.2496840000e+00 2.0482493000e+01 0.0000000000e+00 0.0000e+00 9.0000e+00
        5  1    1    2  501    0 -1.1167271000e+00 +2.4549187000e+01 -4.5795693000e+01 5.1972638000e+01 0.0000000000e+00 0.0000e+00 9.0000e+00
#aMCatNLO 1  0  0  6  2 0.18224054E+01 0.00000000E+00 -9  7  0 0.00000000E+00 0.00000000E+00 0.00000000E+00 0.00000000E+00 0.00000000E+00
<rwgt>
<wgt id='1001'> +1.5146000e+02 </wgt>
<wgt id='1002'> +1.5146000e+02 </wgt>
<wgt id='1003'> +1.3744000e+02 </wgt>
<wgt id='1004'> +1.5174000e+02 </wgt>
<wgt id='1005'> +1.4976000e+02 </wgt>
<wgt id='1006'> +1.5001000e+02 </wgt>
<wgt id='1007'> +1.2957000e+02 </wgt>
<wgt id='1008'> +1.5215000e+02 </wgt>
<wgt id='1009'> +1.5396000e+02 </wgt>
<wgt id='1010'> +1.5033000e+02 </wgt>
<wgt id='1011'> +1.5129000e+02 </wgt>
<wgt id='1012'> +1.4511000e+02 </wgt>
<wgt id='1013'> +1.4698000e+02 </wgt>
<wgt id='1014'> +1.5483000e+02 </wgt>
<wgt id='1015'> +1.5435000e+02 </wgt>
<wgt id='1016'> +1.4569000e+02 </wgt>
<wgt id='1017'> +1.5080000e+02 </wgt>
<wgt id='1018'> +1.5491000e+02 </wgt>
<wgt id='1019'> +1.4843000e+02 </wgt>
<wgt id='1020'> +1.5044000e+02 </wgt>
<wgt id='1021'> +1.5414000e+02 </wgt>
<wgt id='1022'> +1.5428000e+02 </wgt>
<wgt id='1023'> +1.5199000e+02 </wgt>
<wgt id='1024'> +1.4987000e+02 </wgt>
<wgt id='1025'> +1.6427000e+02 </wgt>
<wgt id='1026'> +1.4981000e+02 </wgt>
<wgt id='1027'> +1.5434000e+02 </wgt>
<wgt id='1028'> +1.4839000e+02 </wgt>
<wgt id='1029'> +1.5028000e+02 </wgt>
<wgt id='1030'> +1.5068000e+02 </wgt>
<wgt id='1031'> +1.4884000e+02 </wgt>
<wgt id='1032'> +1.5478000e+02 </wgt>
<wgt id='1033'> +1.5040000e+02 </wgt>
<wgt id='1034'> +1.4613000e+02 </wgt>
<wgt id='1035'> +1.5615000e+02 </wgt>
<wgt id='1036'> +1.5259000e+02 </wgt>
<wgt id='1037'> +1.5563000e+02 </wgt>
<wgt id='1038'> +1.5849000e+02 </wgt>
<wgt id='1039'> +1.5333000e+02 </wgt>
<wgt id='1040'> +1.4964000e+02 </wgt>
<wgt id='1041'> +1.4542000e+02 </wgt>
<wgt id='1042'> +1.5430000e+02 </wgt>
<wgt id='1043'> +1.5151000e+02 </wgt>
<wgt id='1044'> +1.5434000e+02 </wgt>
<wgt id='1045'> +1.5356000e+02 </wgt>
<wgt id='1046'> +1.4976000e+02 </wgt>
<wgt id='1047'> +1.5459000e+02 </wgt>
<wgt id='1048'> +1.5292000e+02 </wgt>
<wgt id='1049'> +1.4901000e+02 </wgt>
<wgt id='1050'> +1.4856000e+02 </wgt>
<wgt id='1051'> +1.5362000e+02 </wgt>
<wgt id='1052'> +1.5228000e+02 </wgt>
<wgt id='1053'> +1.5183000e+02 </wgt>
<wgt id='1054'> +1.5073000e+02 </wgt>
<wgt id='1055'> +1.5434000e+02 </wgt>
<wgt id='1056'> +1.5130000e+02 </wgt>
<wgt id='1057'> +1.5266000e+02 </wgt>
<wgt id='1058'> +1.4663000e+02 </wgt>
<wgt id='1059'> +1.6024000e+02 </wgt>
<wgt id='1060'> +1.5008000e+02 </wgt>
<wgt id='1061'> +1.5311000e+02 </wgt>
<wgt id='1062'> +1.5138000e+02 </wgt>
<wgt id='1063'> +1.5452000e+02 </wgt>
<wgt id='1064'> +1.5164000e+02 </wgt>
<wgt id='1065'> +1.5547000e+02 </wgt>
<wgt id='1066'> +1.4888000e+02 </wgt>
<wgt id='1067'> +1.5491000e+02 </wgt>
<wgt id='1068'> +1.5154000e+02 </wgt>
<wgt id='1069'> +1.5823000e+02 </wgt>
<wgt id='1070'> +1.4942000e+02 </wgt>
<wgt id='1071'> +1.4724000e+02 </wgt>
<wgt id='1072'> +1.5237000e+02 </wgt>
<wgt id='1073'> +1.5675000e+02 </wgt>
<wgt id='1074'> +1.5001000e+02 </wgt>
<wgt id='1075'> +1.3656000e+02 </wgt>
<wgt id='1076'> +1.5233000e+02 </wgt>
<wgt id='1077'> +1.5013000e+02 </wgt>
<wgt id='1078'> +1.4607000e+02 </wgt>
<wgt id='1079'> +1.5234000e+02 </wgt>
<wgt id='1080'> +1.5821000e+02 </wgt>
<wgt id='1081'> +1.5126000e+02 </wgt>
<wgt id='1082'> +1.5265000e+02 </wgt>
<wgt id='1083'> +1.5226000e+02 </wgt>
<wgt id='1084'> +1.4935000e+02 </wgt>
<wgt id='1085'> +1.5276000e+02 </wgt>
<wgt id='1086'> +1.5277000e+02 </wgt>
<wgt id='1087'> +1.4628000e+02 </wgt>
<wgt id='1088'> +1.5080000e+02 </wgt>
<wgt id='1089'> +1.5033000e+02 </wgt>
<wgt id='1090'> +1.5215000e+02 </wgt>
<wgt id='1091'> +1.5580000e+02 </wgt>
<wgt id='1092'> +1.5008000e+02 </wgt>
<wgt id='1093'> +1.4703000e+02 </wgt>
<wgt id='1094'> +1.5691000e+02 </wgt>
<wgt id='1095'> +1.5045000e+02 </wgt>
<wgt id='1096'> +1.5514000e+02 </wgt>
<wgt id='1097'> +1.4830000e+02 </wgt>
<wgt id='1098'> +1.5471000e+02 </wgt>
<wgt id='1099'> +1.5308000e+02 </wgt>
<wgt id='1100'> +1.5953000e+02 </wgt>
<wgt id='1101'> +1.5747000e+02 </wgt>
<wgt id='1102'> +1.4992000e+02 </wgt>
<wgt id='1103'> +1.4832000e+02 </wgt>
<wgt id='1104'> +1.5338000e+02 </wgt>
<wgt id='1105'> +1.5146096e+02 </wgt>
<wgt id='1106'> +6.7510778e+01 </wgt>
<wgt id='1107'> +8.6339809e+01 </wgt>
<wgt id='1108'> +9.0681767e+01 </wgt>
<wgt id='1109'> +8.0804524e+01 </wgt>
<wgt id='1110'> +1.0344478e+02 </wgt>
<wgt id='1111'> +5.8454344e+01 </wgt>
<wgt id='1112'> +5.2134042e+01 </wgt>
<wgt id='1113'> +6.6602126e+01 </wgt>
<wgt id='1114'> +7.2536294e+01 </wgt>
<wgt id='1115'> +6.9891765e+01 </wgt>
<wgt id='1116'> +7.1587885e+01 </wgt>
<wgt id='1117'> +7.2601385e+01 </wgt>
<wgt id='1118'> +7.3037032e+01 </wgt>
<wgt id='1119'> +7.3583172e+01 </wgt>
<wgt id='1120'> +7.2668606e+01 </wgt>
<wgt id='1121'> +7.1686299e+01 </wgt>
<wgt id='1122'> +7.2037716e+01 </wgt>
<wgt id='1123'> +7.3921322e+01 </wgt>
<wgt id='1124'> +7.4122018e+01 </wgt>
<wgt id='1125'> +7.3758124e+01 </wgt>
<wgt id='1126'> +7.0333156e+01 </wgt>
<wgt id='1127'> +7.2283974e+01 </wgt>
<wgt id='1128'> +7.0736874e+01 </wgt>
<wgt id='1129'> +7.5685432e+01 </wgt>
<wgt id='1130'> +7.4717167e+01 </wgt>
<wgt id='1131'> +7.4295618e+01 </wgt>
<wgt id='1132'> +7.1507803e+01 </wgt>
<wgt id='1133'> +7.2988585e+01 </wgt>
<wgt id='1134'> +7.4605269e+01 </wgt>
<wgt id='1135'> +7.0699108e+01 </wgt>
<wgt id='1136'> +7.3022142e+01 </wgt>
<wgt id='1137'> +7.2216012e+01 </wgt>
<wgt id='1138'> +7.1324821e+01 </wgt>
<wgt id='1139'> +7.1546247e+01 </wgt>
<wgt id='1140'> +7.3490641e+01 </wgt>
<wgt id='1141'> +7.3132360e+01 </wgt>
<wgt id='1142'> +7.0550870e+01 </wgt>
<wgt id='1143'> +7.4072187e+01 </wgt>
<wgt id='1144'> +7.3726443e+01 </wgt>
<wgt id='1145'> +7.1929486e+01 </wgt>
<wgt id='1146'> +7.1702098e+01 </wgt>
<wgt id='1147'> +7.1692821e+01 </wgt>
<wgt id='1148'> +7.0798557e+01 </wgt>
<wgt id='1149'> +7.5277044e+01 </wgt>
<wgt id='1150'> +7.2257315e+01 </wgt>
<wgt id='1151'> +7.4038907e+01 </wgt>
<wgt id='1152'> +7.2990279e+01 </wgt>
<wgt id='1153'> +7.2145375e+01 </wgt>
<wgt id='1154'> +7.2252029e+01 </wgt>
<wgt id='1155'> +7.3950561e+01 </wgt>
<wgt id='1156'> +6.9409168e+01 </wgt>
<wgt id='1157'> +7.2068963e+01 </wgt>
<wgt id='1158'> +7.0708664e+01 </wgt>
<wgt id='1159'> +7.3110199e+01 </wgt>
<wgt id='1160'> +7.3156860e+01 </wgt>
<wgt id='1161'> +6.9098974e+01 </wgt>
<wgt id='1162'> +7.0351780e+01 </wgt>
<wgt id='1163'> +7.3474974e+01 </wgt>
<wgt id='1164'> +7.3898836e+01 </wgt>
<wgt id='1165'> +7.1377394e+01 </wgt>
<wgt id='1166'> +7.1744377e+01 </wgt>
<wgt id='1167'> +7.2751241e+01 </wgt>
<wgt id='1168'> +7.0490227e+01 </wgt>
<wgt id='1169'> +7.1161610e+01 </wgt>
<wgt id='1170'> +7.1940559e+01 </wgt>
<wgt id='1171'> +7.2048805e+01 </wgt>
<wgt id='1172'> +7.1736327e+01 </wgt>
<wgt id='1173'> +7.6743021e+01 </wgt>
<wgt id='1174'> +7.2637424e+01 </wgt>
<wgt id='1175'> +7.1976102e+01 </wgt>
<wgt id='1176'> +7.1917695e+01 </wgt>
<wgt id='1177'> +7.2568224e+01 </wgt>
<wgt id='1178'> +7.1726824e+01 </wgt>
<wgt id='1179'> +7.2432270e+01 </wgt>
<wgt id='1180'> +7.2414161e+01 </wgt>
<wgt id='1181'> +6.9816737e+01 </wgt>
<wgt id='1182'> +7.4206937e+01 </wgt>
<wgt id='1183'> +7.1400947e+01 </wgt>
<wgt id='1184'> +6.9704706e+01 </wgt>
<wgt id='1185'> +7.5350922e+01 </wgt>
<wgt id='1186'> +7.5447064e+01 </wgt>
<wgt id='1187'> +7.4159448e+01 </wgt>
<wgt id='1188'> +7.5663570e+01 </wgt>
<wgt id='1189'> +7.3696322e+01 </wgt>
<wgt id='1190'> +7.4784578e+01 </wgt>
<wgt id='1191'> +7.2012860e+01 </wgt>
<wgt id='1192'> +7.2849047e+01 </wgt>
<wgt id='1193'> +7.3649392e+01 </wgt>
<wgt id='1194'> +7.0651597e+01 </wgt>
<wgt id='1195'> +7.0049457e+01 </wgt>
<wgt id='1196'> +7.4717167e+01 </wgt>
<wgt id='1197'> +7.1826646e+01 </wgt>
<wgt id='1198'> +7.3351189e+01 </wgt>
<wgt id='1199'> +7.2926613e+01 </wgt>
<wgt id='1200'> +6.8496452e+01 </wgt>
<wgt id='1201'> +7.3678159e+01 </wgt>
<wgt id='1202'> +7.2160738e+01 </wgt>
<wgt id='1203'> +7.6606814e+01 </wgt>
<wgt id='1204'> +7.0342443e+01 </wgt>
<wgt id='1205'> +7.1575750e+01 </wgt>
<wgt id='1206'> +7.5086426e+01 </wgt>
<wgt id='1207'> +7.4610564e+01 </wgt>
<wgt id='1208'> +7.2026630e+01 </wgt>
<wgt id='1209'> +7.0728644e+01 </wgt>
<wgt id='1210'> +7.1961991e+01 </wgt>
<wgt id='1211'> +7.0884391e+01 </wgt>
<wgt id='1212'> +7.3497175e+01 </wgt>
<wgt id='1213'> +7.3089732e+01 </wgt>
<wgt id='1214'> +7.3750035e+01 </wgt>
<wgt id='1215'> +7.6692498e+01 </wgt>
<wgt id='1216'> +7.1631370e+01 </wgt>
<wgt id='1217'> +7.1920245e+01 </wgt>
<wgt id='1218'> +7.1333503e+01 </wgt>
<wgt id='1219'> +7.1955085e+01 </wgt>
<wgt id='1220'> +7.1821348e+01 </wgt>
<wgt id='1221'> +7.2088360e+01 </wgt>
<wgt id='1222'> +7.1747509e+01 </wgt>
<wgt id='1223'> +7.1904090e+01 </wgt>
<wgt id='1224'> +7.1371604e+01 </wgt>
<wgt id='1225'> +7.1674208e+01 </wgt>
<wgt id='1226'> +7.1283706e+01 </wgt>
<wgt id='1227'> +7.1768883e+01 </wgt>
<wgt id='1228'> +7.2270136e+01 </wgt>
<wgt id='1229'> +7.0944663e+01 </wgt>
<wgt id='1230'> +7.2044398e+01 </wgt>
<wgt id='1231'> +7.1917295e+01 </wgt>
<wgt id='1232'> +7.1684140e+01 </wgt>
<wgt id='1233'> +7.2075778e+01 </wgt>
<wgt id='1234'> +7.1769367e+01 </wgt>
<wgt id='1235'> +7.1239776e+01 </wgt>
<wgt id='1236'> +7.1547269e+01 </wgt>
<wgt id='1237'> +7.1366723e+01 </wgt>
<wgt id='1238'> +7.1607997e+01 </wgt>
<wgt id='1239'> +7.1536144e+01 </wgt>
<wgt id='1240'> +7.1641158e+01 </wgt>
<wgt id='1241'> +7.1649655e+01 </wgt>
<wgt id='1242'> +7.1623530e+01 </wgt>
<wgt id='1243'> +7.1671636e+01 </wgt>
<wgt id='1244'> +7.1618730e+01 </wgt>
<wgt id='1245'> +7.1654037e+01 </wgt>
<wgt id='1246'> +7.1714823e+01 </wgt>
<wgt id='1247'> +7.1663633e+01 </wgt>
<wgt id='1248'> +7.1598453e+01 </wgt>
<wgt id='1249'> +7.1638995e+01 </wgt>
<wgt id='1250'> +7.1619308e+01 </wgt>
<wgt id='1251'> +7.1712591e+01 </wgt>
<wgt id='1252'> +7.1660147e+01 </wgt>
<wgt id='1253'> +7.1628292e+01 </wgt>
<wgt id='1254'> +7.1630686e+01 </wgt>
<wgt id='1255'> +7.1639175e+01 </wgt>
<wgt id='1256'> +7.1603034e+01 </wgt>
<wgt id='1257'> +7.1637035e+01 </wgt>
<wgt id='1258'> +7.1609617e+01 </wgt>
<wgt id='1259'> +7.1613218e+01 </wgt>
<wgt id='1260'> +7.1637984e+01 </wgt>
<wgt id='1261'> +7.1655452e+01 </wgt>
<wgt id='1262'> +7.1658675e+01 </wgt>
<wgt id='1263'> +7.1631461e+01 </wgt>
<wgt id='1264'> +7.1638194e+01 </wgt>
<wgt id='1265'> +7.1627955e+01 </wgt>
<wgt id='1266'> +7.1620535e+01 </wgt>
<wgt id='1267'> +7.1659607e+01 </wgt>
<wgt id='1268'> +7.1612169e+01 </wgt>
<wgt id='1269'> +7.1620383e+01 </wgt>
<wgt id='1270'> +7.1625638e+01 </wgt>
<wgt id='1271'> +7.1602133e+01 </wgt>
<wgt id='1272'> +7.1635822e+01 </wgt>
<wgt id='1273'> +7.1615297e+01 </wgt>
<wgt id='1274'> +7.1618721e+01 </wgt>
<wgt id='1275'> +7.1626166e+01 </wgt>
<wgt id='1276'> +7.1636604e+01 </wgt>
<wgt id='1277'> +7.1625282e+01 </wgt>
<wgt id='1278'> +7.1642472e+01 </wgt>
<wgt id='1279'> +7.1652214e+01 </wgt>
<wgt id='1280'> +7.1626019e+01 </wgt>
<wgt id='1281'> +7.1638912e+01 </wgt>
<wgt id='1282'> +7.1638306e+01 </wgt>
<wgt id='1283'> +7.1622100e+01 </wgt>
<wgt id='1284'> +7.1629102e+01 </wgt>
<wgt id='1285'> +7.1623929e+01 </wgt>
<wgt id='1286'> +7.1636898e+01 </wgt>
<wgt id='1287'> +7.1635079e+01 </wgt>
<wgt id='1288'> +7.1637758e+01 </wgt>
<wgt id='1289'> +7.1621057e+01 </wgt>
<wgt id='1290'> +7.1651808e+01 </wgt>
<wgt id='1291'> +7.1642643e+01 </wgt>
<wgt id='1292'> +7.1616150e+01 </wgt>
<wgt id='1293'> +7.1624898e+01 </wgt>
<wgt id='1294'> +7.1641854e+01 </wgt>
<wgt id='1295'> +7.1618539e+01 </wgt>
<wgt id='1296'> +7.1635414e+01 </wgt>
<wgt id='1297'> +7.1628658e+01 </wgt>
<wgt id='1298'> +7.1628614e+01 </wgt>
<wgt id='1299'> +7.1629878e+01 </wgt>
<wgt id='1300'> +7.1628297e+01 </wgt>
<wgt id='1301'> +7.1630764e+01 </wgt>
<wgt id='1302'> +7.1632610e+01 </wgt>
<wgt id='1303'> +7.1631380e+01 </wgt>
<wgt id='1304'> +7.1630825e+01 </wgt>
<wgt id='1305'> +7.1630886e+01 </wgt>
<wgt id='1306'> +7.1633614e+01 </wgt>
<wgt id='1307'> +7.1629777e+01 </wgt>
<wgt id='1308'> +7.1628720e+01 </wgt>
<wgt id='1309'> +7.1635106e+01 </wgt>
<wgt id='1310'> +7.1636315e+01 </wgt>
<wgt id='1311'> +7.1632318e+01 </wgt>
<wgt id='1312'> +7.1625259e+01 </wgt>
<wgt id='1313'> +7.1624758e+01 </wgt>
<wgt id='1314'> +7.1627247e+01 </wgt>
<wgt id='1315'> +7.1633520e+01 </wgt>
<wgt id='1316'> +7.1635210e+01 </wgt>
<wgt id='1317'> +6.9148504e+01 </wgt>
<wgt id='1318'> +7.4447294e+01 </wgt>
<wgt id='1319'> +6.4902181e+01 </wgt>
<wgt id='1320'> +7.0884070e+01 </wgt>
<wgt id='1321'> +7.0941473e+01 </wgt>
<wgt id='1322'> +7.1098416e+01 </wgt>
<wgt id='1323'> +7.3063523e+01 </wgt>
<wgt id='1324'> +6.9710773e+01 </wgt>
<wgt id='1325'> +7.1060295e+01 </wgt>
<wgt id='1326'> +7.0704566e+01 </wgt>
<wgt id='1327'> +7.2140760e+01 </wgt>
<wgt id='1328'> +7.0126444e+01 </wgt>
<wgt id='1329'> +6.9163905e+01 </wgt>
<wgt id='1330'> +7.2180592e+01 </wgt>
<wgt id='1331'> +7.2435502e+01 </wgt>
<wgt id='1332'> +6.9947993e+01 </wgt>
<wgt id='1333'> +6.7886532e+01 </wgt>
<wgt id='1334'> +7.2658583e+01 </wgt>
<wgt id='1335'> +7.1768949e+01 </wgt>
<wgt id='1336'> +7.0281293e+01 </wgt>
<wgt id='1337'> +6.9995178e+01 </wgt>
<wgt id='1338'> +7.1938821e+01 </wgt>
<wgt id='1339'> +7.2055356e+01 </wgt>
<wgt id='1340'> +6.9591891e+01 </wgt>
<wgt id='1341'> +7.1176899e+01 </wgt>
<wgt id='1342'> +7.0283253e+01 </wgt>
<wgt id='1343'> +7.0370733e+01 </wgt>
<wgt id='1344'> +7.1358811e+01 </wgt>
<wgt id='1345'> +6.9919354e+01 </wgt>
<wgt id='1346'> +7.1749261e+01 </wgt>
<wgt id='1347'> +7.0609997e+01 </wgt>
<wgt id='1348'> +7.1256121e+01 </wgt>
<wgt id='1349'> +7.0235458e+01 </wgt>
<wgt id='1350'> +7.1108224e+01 </wgt>
<wgt id='1351'> +7.1045815e+01 </wgt>
<wgt id='1352'> +7.0672607e+01 </wgt>
<wgt id='1353'> +7.0734504e+01 </wgt>
<wgt id='1354'> +7.1189035e+01 </wgt>
<wgt id='1355'> +7.2017596e+01 </wgt>
<wgt id='1356'> +6.9787470e+01 </wgt>
<wgt id='1357'> +7.1617235e+01 </wgt>
<wgt id='1358'> +6.9711243e+01 </wgt>
<wgt id='1359'> +7.0928502e+01 </wgt>
<wgt id='1360'> +7.0751624e+01 </wgt>
<wgt id='1361'> +7.1574583e+01 </wgt>
<wgt id='1362'> +7.0234604e+01 </wgt>
<wgt id='1363'> +7.1830386e+01 </wgt>
<wgt id='1364'> +6.9975270e+01 </wgt>
<wgt id='1365'> +6.9878233e+01 </wgt>
<wgt id='1366'> +7.0546786e+01 </wgt>
<wgt id='1367'> +6.9699584e+01 </wgt>
<wgt id='1368'> +7.1760603e+01 </wgt>
<wgt id='1369'> +7.1228679e+01 </wgt>
<wgt id='1370'> +6.9074823e+01 </wgt>
<wgt id='1371'> +7.0793166e+01 </wgt>
<wgt id='1372'> +7.0717389e+01 </wgt>
<wgt id='1373'> +6.9161871e+01 </wgt>
<wgt id='1374'> +7.1637794e+01 </wgt>
<wgt id='1375'> +7.0160034e+01 </wgt>
<wgt id='1376'> +7.1663031e+01 </wgt>
<wgt id='1377'> +6.8286584e+01 </wgt>
<wgt id='1378'> +7.3332471e+01 </wgt>
<wgt id='1379'> +7.1549174e+01 </wgt>
<wgt id='1380'> +6.9145351e+01 </wgt>
<wgt id='1381'> +7.3677648e+01 </wgt>
<wgt id='1382'> +5.5102491e+01 </wgt>
<wgt id='1383'> +7.3209993e+01 </wgt>
<wgt id='1384'> +7.2603707e+01 </wgt>
<wgt id='1385'> +8.6743334e+01 </wgt>
<wgt id='1386'> +8.6903844e+01 </wgt>
<wgt id='1387'> +8.6559140e+01 </wgt>
<wgt id='1388'> +8.6209360e+01 </wgt>
<wgt id='1389'> +8.7653334e+01 </wgt>
<wgt id='1390'> +8.6548824e+01 </wgt>
<wgt id='1391'> +8.6968577e+01 </wgt>
<wgt id='1392'> +8.6813901e+01 </wgt>
<wgt id='1393'> +8.6687951e+01 </wgt>
<wgt id='1394'> +8.6350749e+01 </wgt>
<wgt id='1395'> +8.7227849e+01 </wgt>
<wgt id='1396'> +8.5872295e+01 </wgt>
<wgt id='1397'> +8.7194320e+01 </wgt>
<wgt id='1398'> +8.6892264e+01 </wgt>
<wgt id='1399'> +8.6620400e+01 </wgt>
<wgt id='1400'> +8.6547179e+01 </wgt>
<wgt id='1401'> +8.6880485e+01 </wgt>
<wgt id='1402'> +8.6514782e+01 </wgt>
<wgt id='1403'> +8.6844614e+01 </wgt>
<wgt id='1404'> +8.7678194e+01 </wgt>
<wgt id='1405'> +8.6287503e+01 </wgt>
<wgt id='1406'> +8.6668398e+01 </wgt>
<wgt id='1407'> +8.6871471e+01 </wgt>
<wgt id='1408'> +8.6717983e+01 </wgt>
<wgt id='1409'> +8.6795247e+01 </wgt>
<wgt id='1410'> +8.6713632e+01 </wgt>
<wgt id='1411'> +8.6750520e+01 </wgt>
<wgt id='1412'> +8.7609065e+01 </wgt>
<wgt id='1413'> +8.5667179e+01 </wgt>
<wgt id='1414'> +8.7165838e+01 </wgt>
<wgt id='1415'> +8.6468740e+01 </wgt>
<wgt id='1416'> +8.6826732e+01 </wgt>
<wgt id='1417'> +8.6688479e+01 </wgt>
<wgt id='1418'> +8.7005460e+01 </wgt>
<wgt id='1419'> +8.6185778e+01 </wgt>
<wgt id='1420'> +8.6176174e+01 </wgt>
<wgt id='1421'> +8.6808832e+01 </wgt>
<wgt id='1422'> +8.6955067e+01 </wgt>
<wgt id='1423'> +8.6493064e+01 </wgt>
<wgt id='1424'> +8.6881414e+01 </wgt>
<wgt id='1425'> +8.6308699e+01 </wgt>
<wgt id='1426'> +8.6887884e+01 </wgt>
<wgt id='1427'> +8.6606451e+01 </wgt>
<wgt id='1428'> +8.7026255e+01 </wgt>
<wgt id='1429'> +8.6791303e+01 </wgt>
<wgt id='1430'> +8.6757655e+01 </wgt>
<wgt id='1431'> +8.6724660e+01 </wgt>
<wgt id='1432'> +8.6711390e+01 </wgt>
<wgt id='1433'> +8.6769790e+01 </wgt>
<wgt id='1434'> +8.6671709e+01 </wgt>
<wgt id='1435'> +8.6823355e+01 </wgt>
<wgt id='1436'> +0.0000000e+00 </wgt>
<wgt id='1437'> +0.0000000e+00 </wgt>
<wgt id='1438'> +0.0000000e+00 </wgt>
<wgt id='1439'> +0.0000000e+00 </wgt>
<wgt id='1440'> +0.0000000e+00 </wgt>
<wgt id='1441'> +0.0000000e+00 </wgt>
<wgt id='1442'> +0.0000000e+00 </wgt>
<wgt id='1443'> +0.0000000e+00 </wgt>
<wgt id='1444'> +0.0000000e+00 </wgt>
<wgt id='1445'> +0.0000000e+00 </wgt>
<wgt id='1446'> +0.0000000e+00 </wgt>
<wgt id='1447'> +0.0000000e+00 </wgt>
<wgt id='1448'> +0.0000000e+00 </wgt>
<wgt id='1449'> +0.0000000e+00 </wgt>
<wgt id='1450'> +0.0000000e+00 </wgt>
<wgt id='1451'> +0.0000000e+00 </wgt>
<wgt id='1452'> +0.0000000e+00 </wgt>
<wgt id='1453'> +0.0000000e+00 </wgt>
<wgt id='1454'> +0.0000000e+00 </wgt>
<wgt id='1455'> +0.0000000e+00 </wgt>
<wgt id='1456'> +0.0000000e+00 </wgt>
<wgt id='1457'> +0.0000000e+00 </wgt>
<wgt id='1458'> +0.0000000e+00 </wgt>
<wgt id='1459'> +0.0000000e+00 </wgt>
<wgt id='1460'> +0.0000000e+00 </wgt>
<wgt id='1461'> +0.0000000e+00 </wgt>
<wgt id='1462'> +0.0000000e+00 </wgt>
<wgt id='1463'> +0.0000000e+00 </wgt>
<wgt id='1464'> +0.0000000e+00 </wgt>
<wgt id='1465'> +7.7307218e+01 </wgt>
<wgt id='1466'> +7.3287340e+01 </wgt>
<wgt id='1467'> +7.3090422e+01 </wgt>
<wgt id='1468'> +7.4355685e+01 </wgt>
<wgt id='1469'> +7.3580145e+01 </wgt>
<wgt id='1470'> +7.2969223e+01 </wgt>
<wgt id='1471'> +7.3086330e+01 </wgt>
<wgt id='1472'> +7.3547350e+01 </wgt>
<wgt id='1473'> +7.3186536e+01 </wgt>
<wgt id='1474'> +7.3372224e+01 </wgt>
<wgt id='1475'> +7.3291312e+01 </wgt>
<wgt id='1476'> +7.5517087e+01 </wgt>
<wgt id='1477'> +7.3360543e+01 </wgt>
<wgt id='1478'> +7.2152365e+01 </wgt>
<wgt id='1479'> +7.3431891e+01 </wgt>
<wgt id='1480'> +7.2229156e+01 </wgt>
<wgt id='1481'> +7.3525483e+01 </wgt>
<wgt id='1482'> +7.3166636e+01 </wgt>
<wgt id='1483'> +7.3066499e+01 </wgt>
<wgt id='1484'> +7.3243759e+01 </wgt>
<wgt id='1485'> +7.2921378e+01 </wgt>
<wgt id='1486'> +7.3110154e+01 </wgt>
<wgt id='1487'> +7.3433592e+01 </wgt>
<wgt id='1488'> +7.3568532e+01 </wgt>
<wgt id='1489'> +7.3214646e+01 </wgt>
<wgt id='1490'> +7.3434012e+01 </wgt>
<wgt id='1491'> +7.3651206e+01 </wgt>
<wgt id='1492'> +7.3387426e+01 </wgt>
<wgt id='1493'> +7.3170335e+01 </wgt>
<wgt id='1494'> +7.3380463e+01 </wgt>
<wgt id='1495'> +7.3318062e+01 </wgt>
<wgt id='1496'> +7.3469445e+01 </wgt>
<wgt id='1497'> +7.3284632e+01 </wgt>
<wgt id='1498'> +7.3254172e+01 </wgt>
<wgt id='1499'> +7.3296455e+01 </wgt>
<wgt id='1500'> +7.3494391e+01 </wgt>
<wgt id='1501'> +7.3288827e+01 </wgt>
<wgt id='1502'> +7.3289963e+01 </wgt>
<wgt id='1503'> +7.3312927e+01 </wgt>
<wgt id='1504'> +7.3307973e+01 </wgt>
<wgt id='1505'> +7.3411302e+01 </wgt>
<wgt id='1506'> +7.3441935e+01 </wgt>
<wgt id='1507'> +7.3368785e+01 </wgt>
<wgt id='1508'> +7.3337899e+01 </wgt>
<wgt id='1509'> +7.3225826e+01 </wgt>
<wgt id='1510'> +7.3472041e+01 </wgt>
<wgt id='1511'> +7.3303766e+01 </wgt>
<wgt id='1512'> +7.3267918e+01 </wgt>
<wgt id='1513'> +7.3229205e+01 </wgt>
<wgt id='1514'> +7.3349890e+01 </wgt>
<wgt id='1515'> +7.3335338e+01 </wgt>
<wgt id='1516'> +7.3154560e+01 </wgt>
<wgt id='1517'> +7.3292326e+01 </wgt>
<wgt id='1518'> +7.3175025e+01 </wgt>
<wgt id='1519'> +7.3154061e+01 </wgt>
<wgt id='1520'> +7.3199137e+01 </wgt>
<wgt id='1521'> +7.3315609e+01 </wgt>
<wgt id='1522'> +7.3243974e+01 </wgt>
<wgt id='1523'> +7.3355854e+01 </wgt>
<wgt id='1524'> +7.3336368e+01 </wgt>
<wgt id='1525'> +7.3344800e+01 </wgt>
<wgt id='1526'> +7.3250288e+01 </wgt>
<wgt id='1527'> +7.3404496e+01 </wgt>
<wgt id='1528'> +7.3342257e+01 </wgt>
<wgt id='1529'> +7.3260698e+01 </wgt>
<wgt id='1530'> +7.3289190e+01 </wgt>
<wgt id='1531'> +7.3340419e+01 </wgt>
<wgt id='1532'> +7.3386399e+01 </wgt>
<wgt id='1533'> +7.3307930e+01 </wgt>
<wgt id='1534'> +7.3341826e+01 </wgt>
<wgt id='1535'> +7.3313659e+01 </wgt>
<wgt id='1536'> +7.3208381e+01 </wgt>
<wgt id='1537'> +7.3232152e+01 </wgt>
<wgt id='1538'> +7.3281489e+01 </wgt>
<wgt id='1539'> +7.3308951e+01 </wgt>
<wgt id='1540'> +7.3145742e+01 </wgt>
<wgt id='1541'> +7.3263533e+01 </wgt>
<wgt id='1542'> +7.3324657e+01 </wgt>
<wgt id='1543'> +7.3215393e+01 </wgt>
<wgt id='1544'> +7.3240520e+01 </wgt>
<wgt id='1545'> +7.3309615e+01 </wgt>
<wgt id='1546'> +7.3284011e+01 </wgt>
<wgt id='1547'> +7.3340193e+01 </wgt>
<wgt id='1548'> +7.3326374e+01 </wgt>
<wgt id='1549'> +7.3241261e+01 </wgt>
<wgt id='1550'> +7.3346870e+01 </wgt>
<wgt id='1551'> +7.3283077e+01 </wgt>
<wgt id='1552'> +7.3356620e+01 </wgt>
<wgt id='1553'> +7.3338244e+01 </wgt>
<wgt id='1554'> +7.3338916e+01 </wgt>
<wgt id='1555'> +7.3272510e+01 </wgt>
<wgt id='1556'> +7.3320813e+01 </wgt>
<wgt id='1557'> +7.3231181e+01 </wgt>
<wgt id='1558'> +7.3273591e+01 </wgt>
<wgt id='1559'> +7.3326736e+01 </wgt>
<wgt id='1560'> +7.3235008e+01 </wgt>
<wgt id='1561'> +7.3246469e+01 </wgt>
<wgt id='1562'> +7.3329569e+01 </wgt>
<wgt id='1563'> +7.3295895e+01 </wgt>
<wgt id='1564'> +7.3276973e+01 </wgt>
<wgt id='1565'> +7.3271212e+01 </wgt>
<wgt id='1566'> +7.3290872e+01 </wgt>
<wgt id='1567'> +7.1360132e+01 </wgt>
<wgt id='1568'> +7.4999377e+01 </wgt>
<wgt id='1569'> +7.3637464e+01 </wgt>
<wgt id='1570'> +7.3206906e+01 </wgt>
<wgt id='1571'> +7.4494612e+01 </wgt>
<wgt id='1572'> +7.2228984e+01 </wgt>
<wgt id='1573'> +7.3142671e+01 </wgt>
<wgt id='1574'> +7.3892516e+01 </wgt>
<wgt id='1575'> +7.3359531e+01 </wgt>
<wgt id='1576'> +7.4063045e+01 </wgt>
<wgt id='1577'> +7.3826812e+01 </wgt>
<wgt id='1578'> +7.3364650e+01 </wgt>
<wgt id='1579'> +7.2929660e+01 </wgt>
<wgt id='1580'> +7.5258677e+01 </wgt>
<wgt id='1581'> +7.2819512e+01 </wgt>
<wgt id='1582'> +7.1990276e+01 </wgt>
<wgt id='1583'> +7.2977583e+01 </wgt>
<wgt id='1584'> +7.3634066e+01 </wgt>
<wgt id='1585'> +7.4584657e+01 </wgt>
<wgt id='1586'> +7.3409707e+01 </wgt>
<wgt id='1587'> +7.3588833e+01 </wgt>
<wgt id='1588'> +7.3836001e+01 </wgt>
<wgt id='1589'> +7.4037600e+01 </wgt>
<wgt id='1590'> +7.3671325e+01 </wgt>
<wgt id='1591'> +7.3525528e+01 </wgt>
<wgt id='1592'> +7.3659104e+01 </wgt>
<wgt id='1593'> +7.3425756e+01 </wgt>
<wgt id='1594'> +7.3683540e+01 </wgt>
<wgt id='1595'> +7.3534628e+01 </wgt>
<wgt id='1596'> +7.3785322e+01 </wgt>
<wgt id='1597'> +7.3726820e+01 </wgt>
<wgt id='1598'> +7.3507606e+01 </wgt>
<wgt id='1599'> +7.3515794e+01 </wgt>
<wgt id='1600'> +7.3739882e+01 </wgt>
<wgt id='1601'> +7.3490496e+01 </wgt>
<wgt id='1602'> +7.3510676e+01 </wgt>
<wgt id='1603'> +7.3682695e+01 </wgt>
<wgt id='1604'> +7.3626640e+01 </wgt>
<wgt id='1605'> +7.3693650e+01 </wgt>
<wgt id='1606'> +7.3580653e+01 </wgt>
<wgt id='1607'> +7.3594697e+01 </wgt>
<wgt id='1608'> +7.3522216e+01 </wgt>
<wgt id='1609'> +7.3572189e+01 </wgt>
<wgt id='1610'> +7.3750050e+01 </wgt>
<wgt id='1611'> +7.3761999e+01 </wgt>
<wgt id='1612'> +7.3562933e+01 </wgt>
<wgt id='1613'> +7.3593734e+01 </wgt>
<wgt id='1614'> +7.3746661e+01 </wgt>
<wgt id='1615'> +7.3595381e+01 </wgt>
<wgt id='1616'> +7.3733064e+01 </wgt>
<wgt id='1617'> +7.3724300e+01 </wgt>
<wgt id='1618'> +7.3690408e+01 </wgt>
<wgt id='1619'> +7.3637066e+01 </wgt>
<wgt id='1620'> +7.3594662e+01 </wgt>
<wgt id='1621'> +7.3687032e+01 </wgt>
<wgt id='1622'> +7.3518448e+01 </wgt>
<wgt id='1623'> +7.3597390e+01 </wgt>
<wgt id='1624'> +7.3649474e+01 </wgt>
<wgt id='1625'> +7.3628580e+01 </wgt>
<wgt id='1626'> +7.3716357e+01 </wgt>
<wgt id='1627'> +7.3533971e+01 </wgt>
<wgt id='1628'> +7.3611932e+01 </wgt>
<wgt id='1629'> +7.3626207e+01 </wgt>
<wgt id='1630'> +7.3647522e+01 </wgt>
<wgt id='1631'> +7.3649885e+01 </wgt>
<wgt id='1632'> +7.3555878e+01 </wgt>
<wgt id='1633'> +7.3742771e+01 </wgt>
<wgt id='1634'> +7.3575294e+01 </wgt>
<wgt id='1635'> +7.3580580e+01 </wgt>
<wgt id='1636'> +7.3628614e+01 </wgt>
<wgt id='1637'> +7.3647809e+01 </wgt>
<wgt id='1638'> +7.3637767e+01 </wgt>
<wgt id='1639'> +7.3624949e+01 </wgt>
<wgt id='1640'> +7.3633436e+01 </wgt>
<wgt id='1641'> +7.3606889e+01 </wgt>
<wgt id='1642'> +7.3657797e+01 </wgt>
<wgt id='1643'> +7.3644735e+01 </wgt>
<wgt id='1644'> +7.3672515e+01 </wgt>
<wgt id='1645'> +7.3624671e+01 </wgt>
<wgt id='1646'> +7.3631838e+01 </wgt>
<wgt id='1647'> +7.3569064e+01 </wgt>
<wgt id='1648'> +7.3627156e+01 </wgt>
<wgt id='1649'> +7.3713803e+01 </wgt>
<wgt id='1650'> +7.3664960e+01 </wgt>
<wgt id='1651'> +7.3656137e+01 </wgt>
<wgt id='1652'> +7.3655147e+01 </wgt>
<wgt id='1653'> +7.3612801e+01 </wgt>
<wgt id='1654'> +7.3581798e+01 </wgt>
<wgt id='1655'> +7.3680656e+01 </wgt>
<wgt id='1656'> +7.3553056e+01 </wgt>
<wgt id='1657'> +7.3593673e+01 </wgt>
<wgt id='1658'> +7.3594911e+01 </wgt>
<wgt id='1659'> +7.3609048e+01 </wgt>
<wgt id='1660'> +7.3579827e+01 </wgt>
<wgt id='1661'> +7.3591985e+01 </wgt>
<wgt id='1662'> +7.3632277e+01 </wgt>
<wgt id='1663'> +7.3578814e+01 </wgt>
<wgt id='1664'> +7.3616545e+01 </wgt>
<wgt id='1665'> +7.3670796e+01 </wgt>
<wgt id='1666'> +7.3648081e+01 </wgt>
<wgt id='1667'> +7.3595597e+01 </wgt>
<wgt id='1668'> +7.3657099e+01 </wgt>
<wgt id='1669'> +7.3655397e+01 </wgt>
<wgt id='1670'> +7.1954014e+01 </wgt>
<wgt id='1671'> +7.4884883e+01 </wgt>
<wgt id='1672'> +7.3324326e+01 </wgt>
<wgt id='1673'> +7.3969762e+01 </wgt>
<wgt id='1674'> +7.2571148e+01 </wgt>
<wgt id='1675'> +7.3343630e+01 </wgt>
<wgt id='1676'> +7.2020617e+01 </wgt>
<wgt id='1677'> +7.5672468e+01 </wgt>
<wgt id='1678'> +7.3082503e+01 </wgt>
<wgt id='1679'> +7.3323811e+01 </wgt>
<wgt id='1680'> +7.3790971e+01 </wgt>
<wgt id='1681'> +7.3078143e+01 </wgt>
<wgt id='1682'> +7.3696420e+01 </wgt>
<wgt id='1683'> +7.3286887e+01 </wgt>
<wgt id='1684'> +7.3601162e+01 </wgt>
<wgt id='1685'> +7.3448392e+01 </wgt>
<wgt id='1686'> +7.3076726e+01 </wgt>
<wgt id='1687'> +7.3233934e+01 </wgt>
<wgt id='1688'> +7.2894737e+01 </wgt>
<wgt id='1689'> +7.3264416e+01 </wgt>
<wgt id='1690'> +7.3544042e+01 </wgt>
<wgt id='1691'> +7.3487890e+01 </wgt>
<wgt id='1692'> +7.3542387e+01 </wgt>
<wgt id='1693'> +7.3286640e+01 </wgt>
<wgt id='1694'> +7.3315259e+01 </wgt>
<wgt id='1695'> +7.3377674e+01 </wgt>
<wgt id='1696'> +7.3089709e+01 </wgt>
<wgt id='1697'> +7.3410838e+01 </wgt>
<wgt id='1698'> +7.3505420e+01 </wgt>
<wgt id='1699'> +7.3494136e+01 </wgt>
<wgt id='1700'> +7.3582062e+01 </wgt>
<wgt id='1701'> +7.3550719e+01 </wgt>
<wgt id='1702'> +7.3287348e+01 </wgt>
<wgt id='1703'> +7.1360132e+01 </wgt>
<wgt id='1704'> +7.4999377e+01 </wgt>
<wgt id='1705'> +7.3651865e+01 </wgt>
<wgt id='1706'> +7.3053659e+01 </wgt>
<wgt id='1707'> +7.4214099e+01 </wgt>
<wgt id='1708'> +7.3411298e+01 </wgt>
<wgt id='1709'> +7.4964691e+01 </wgt>
<wgt id='1710'> +7.1961797e+01 </wgt>
<wgt id='1711'> +7.3473130e+01 </wgt>
<wgt id='1712'> +7.3433875e+01 </wgt>
<wgt id='1713'> +7.3032768e+01 </wgt>
<wgt id='1714'> +7.3015471e+01 </wgt>
<wgt id='1715'> +7.3965756e+01 </wgt>
<wgt id='1716'> +7.3699282e+01 </wgt>
<wgt id='1717'> +7.3901689e+01 </wgt>
<wgt id='1718'> +7.3969612e+01 </wgt>
<wgt id='1719'> +7.3450151e+01 </wgt>
<wgt id='1720'> +7.3418319e+01 </wgt>
<wgt id='1721'> +7.3368818e+01 </wgt>
<wgt id='1722'> +7.4385986e+01 </wgt>
<wgt id='1723'> +7.3423178e+01 </wgt>
<wgt id='1724'> +7.3258686e+01 </wgt>
<wgt id='1725'> +7.4235020e+01 </wgt>
<wgt id='1726'> +7.4055476e+01 </wgt>
<wgt id='1727'> +7.5584730e+01 </wgt>
<wgt id='1728'> +7.3585563e+01 </wgt>
<wgt id='1729'> +7.4176951e+01 </wgt>
<wgt id='1730'> +7.3458777e+01 </wgt>
<wgt id='1731'> +7.3850765e+01 </wgt>
<wgt id='1732'> +7.3770443e+01 </wgt>
<wgt id='1733'> +7.4099887e+01 </wgt>
<wgt id='1734'> +7.3652321e+01 </wgt>
<wgt id='1735'> +7.3654705e+01 </wgt>
<wgt id='1736'> +7.1954014e+01 </wgt>
<wgt id='1737'> +7.4884883e+01 </wgt>
<wgt id='1738'> +7.7956915e+01 </wgt>
<wgt id='1739'> +7.7828380e+01 </wgt>
<wgt id='1740'> +7.8085002e+01 </wgt>
<wgt id='1741'> +7.8160560e+01 </wgt>
<wgt id='1742'> +7.7753654e+01 </wgt>
<wgt id='1743'> +7.8107795e+01 </wgt>
<wgt id='1744'> +7.7806405e+01 </wgt>
<wgt id='1745'> +7.8258729e+01 </wgt>
<wgt id='1746'> +7.7663308e+01 </wgt>
<wgt id='1747'> +7.8067283e+01 </wgt>
<wgt id='1748'> +7.7849406e+01 </wgt>
<wgt id='1749'> +7.7779045e+01 </wgt>
<wgt id='1750'> +7.8158326e+01 </wgt>
<wgt id='1751'> +7.7596659e+01 </wgt>
<wgt id='1752'> +7.8322032e+01 </wgt>
<wgt id='1753'> +7.7944112e+01 </wgt>
<wgt id='1754'> +7.7825338e+01 </wgt>
<wgt id='1755'> +7.8240347e+01 </wgt>
<wgt id='1756'> +7.7672246e+01 </wgt>
<wgt id='1757'> +7.7618117e+01 </wgt>
<wgt id='1758'> +7.8272933e+01 </wgt>
<wgt id='1759'> +7.8326983e+01 </wgt>
<wgt id='1760'> +7.7497590e+01 </wgt>
<wgt id='1761'> +7.7624878e+01 </wgt>
<wgt id='1762'> +7.7873313e+01 </wgt>
<wgt id='1763'> +7.8240042e+01 </wgt>
<wgt id='1764'> +7.7788870e+01 </wgt>
<wgt id='1765'> +7.7870593e+01 </wgt>
<wgt id='1766'> +7.8122201e+01 </wgt>
<wgt id='1767'> +7.7956915e+01 </wgt>
<wgt id='1768'> +7.7940226e+01 </wgt>
<wgt id='1769'> +7.7930035e+01 </wgt>
<wgt id='1770'> +7.7928495e+01 </wgt>
<wgt id='1771'> +7.7938572e+01 </wgt>
<wgt id='1772'> +7.8233572e+01 </wgt>
<wgt id='1773'> +7.7178565e+01 </wgt>
<wgt id='1774'> +7.9641454e+01 </wgt>
<wgt id='1775'> +7.6351478e+01 </wgt>
<wgt id='1776'> +7.7796115e+01 </wgt>
<wgt id='1777'> +7.8134910e+01 </wgt>
<wgt id='1778'> +7.7983706e+01 </wgt>
<wgt id='1779'> +7.8034871e+01 </wgt>
<wgt id='1780'> +7.7032246e+01 </wgt>
<wgt id='1781'> +7.3738850e+01 </wgt>
<wgt id='1782'> +7.3663534e+01 </wgt>
<wgt id='1783'> +7.3801417e+01 </wgt>
<wgt id='1784'> +7.3832656e+01 </wgt>
<wgt id='1785'> +7.3632705e+01 </wgt>
<wgt id='1786'> +7.3928379e+01 </wgt>
<wgt id='1787'> +7.3537228e+01 </wgt>
<wgt id='1788'> +7.4143189e+01 </wgt>
<wgt id='1789'> +7.3332799e+01 </wgt>
<wgt id='1790'> +7.3715100e+01 </wgt>
<wgt id='1791'> +7.3755761e+01 </wgt>
<wgt id='1792'> +7.3944461e+01 </wgt>
<wgt id='1793'> +7.3521560e+01 </wgt>
<wgt id='1794'> +7.3495347e+01 </wgt>
<wgt id='1795'> +7.3967750e+01 </wgt>
<wgt id='1796'> +7.3572085e+01 </wgt>
<wgt id='1797'> +7.3790469e+01 </wgt>
<wgt id='1798'> +7.3709355e+01 </wgt>
<wgt id='1799'> +7.3740162e+01 </wgt>
<wgt id='1800'> +7.3564529e+01 </wgt>
<wgt id='1801'> +7.3896054e+01 </wgt>
<wgt id='1802'> +7.3012464e+01 </wgt>
<wgt id='1803'> +7.4346732e+01 </wgt>
<wgt id='1804'> +7.3790971e+01 </wgt>
<wgt id='1805'> +7.3662105e+01 </wgt>
<wgt id='1806'> +7.3491672e+01 </wgt>
<wgt id='1807'> +7.3774997e+01 </wgt>
<wgt id='1808'> +7.3738499e+01 </wgt>
<wgt id='1809'> +7.3816031e+01 </wgt>
<wgt id='1810'> +7.3671683e+01 </wgt>
<wgt id='1811'> +7.3746387e+01 </wgt>
<wgt id='1812'> +7.3426740e+01 </wgt>
<wgt id='1813'> +7.3720611e+01 </wgt>
<wgt id='1814'> +7.3583433e+01 </wgt>
<wgt id='1815'> +7.3591560e+01 </wgt>
<wgt id='1816'> +7.3522559e+01 </wgt>
<wgt id='1817'> +7.5241882e+01 </wgt>
<wgt id='1818'> +7.2351957e+01 </wgt>
<wgt id='1819'> +7.3440314e+01 </wgt>
<wgt id='1820'> +7.3863800e+01 </wgt>
<wgt id='1821'> +7.3402606e+01 </wgt>
<wgt id='1822'> +7.4358716e+01 </wgt>
<wgt id='1823'> +7.3090409e+01 </wgt>
<wgt id='1824'> +7.0513474e+01 </wgt>
<wgt id='1825'> +7.0503574e+01 </wgt>
<wgt id='1826'> +7.0493919e+01 </wgt>
<wgt id='1827'> +7.0484105e+01 </wgt>
<wgt id='1828'> +7.0474287e+01 </wgt>
<wgt id='1829'> +7.0464535e+01 </wgt>
<wgt id='1830'> +7.0454856e+01 </wgt>
<wgt id='1831'> +7.0444910e+01 </wgt>
<wgt id='1832'> +7.0435166e+01 </wgt>
<wgt id='1833'> +7.0425442e+01 </wgt>
<wgt id='1834'> +7.0415705e+01 </wgt>
<wgt id='1835'> +7.0406012e+01 </wgt>
<wgt id='1836'> +7.0396036e+01 </wgt>
<wgt id='1837'> +7.0386393e+01 </wgt>
<wgt id='1838'> +7.0376655e+01 </wgt>
<wgt id='1839'> +7.0366815e+01 </wgt>
<wgt id='1840'> +7.0356938e+01 </wgt>
<wgt id='1841'> +7.0347365e+01 </wgt>
<wgt id='1842'> +7.0337464e+01 </wgt>
<wgt id='1843'> +7.0327760e+01 </wgt>
<wgt id='1844'> +7.0318113e+01 </wgt>
<wgt id='1845'> +7.0308250e+01 </wgt>
<wgt id='1846'> +7.0298614e+01 </wgt>
<wgt id='1847'> +7.0288743e+01 </wgt>
<wgt id='1848'> +7.0278909e+01 </wgt>
<wgt id='1849'> +7.0269236e+01 </wgt>
<wgt id='1850'> +7.0259384e+01 </wgt>
<wgt id='1851'> +7.0249587e+01 </wgt>
<wgt id='1852'> +7.0240008e+01 </wgt>
<wgt id='1853'> +7.0230088e+01 </wgt>
<wgt id='1854'> +7.0220450e+01 </wgt>
<wgt id='1855'> +7.2840298e+01 </wgt>
<wgt id='1856'> +7.2386668e+01 </wgt>
<wgt id='1857'> +7.3688205e+01 </wgt>
<wgt id='1858'> +7.1440557e+01 </wgt>
<wgt id='1859'> +7.2342246e+01 </wgt>
<wgt id='1860'> +7.3087831e+01 </wgt>
<wgt id='1861'> +7.2581986e+01 </wgt>
<wgt id='1862'> +7.3285798e+01 </wgt>
<wgt id='1863'> +7.3030100e+01 </wgt>
<wgt id='1864'> +7.2568878e+01 </wgt>
<wgt id='1865'> +7.2128496e+01 </wgt>
<wgt id='1866'> +7.4474073e+01 </wgt>
<wgt id='1867'> +7.2043029e+01 </wgt>
<wgt id='1868'> +7.1212493e+01 </wgt>
<wgt id='1869'> +7.2190834e+01 </wgt>
<wgt id='1870'> +7.2810706e+01 </wgt>
<wgt id='1871'> +7.3807640e+01 </wgt>
<wgt id='1872'> +7.2601506e+01 </wgt>
<wgt id='1873'> +7.2785576e+01 </wgt>
<wgt id='1874'> +7.3054019e+01 </wgt>
<wgt id='1875'> +7.3252594e+01 </wgt>
<wgt id='1876'> +7.2863335e+01 </wgt>
<wgt id='1877'> +7.2724824e+01 </wgt>
<wgt id='1878'> +7.2866670e+01 </wgt>
<wgt id='1879'> +7.2619771e+01 </wgt>
<wgt id='1880'> +7.2870697e+01 </wgt>
<wgt id='1881'> +7.2721266e+01 </wgt>
<wgt id='1882'> +7.3004103e+01 </wgt>
<wgt id='1883'> +7.2936283e+01 </wgt>
<wgt id='1884'> +7.2702922e+01 </wgt>
<wgt id='1885'> +7.2708137e+01 </wgt>
<wgt id='1886'> +7.2959426e+01 </wgt>
<wgt id='1887'> +7.2687001e+01 </wgt>
<wgt id='1888'> +7.2706388e+01 </wgt>
<wgt id='1889'> +7.2886024e+01 </wgt>
<wgt id='1890'> +7.2824313e+01 </wgt>
<wgt id='1891'> +7.2897598e+01 </wgt>
<wgt id='1892'> +7.2783063e+01 </wgt>
<wgt id='1893'> +7.2795606e+01 </wgt>
<wgt id='1894'> +7.2718391e+01 </wgt>
<wgt id='1895'> +7.2775916e+01 </wgt>
<wgt id='1896'> +7.2950472e+01 </wgt>
<wgt id='1897'> +7.2963892e+01 </wgt>
<wgt id='1898'> +7.2774631e+01 </wgt>
<wgt id='1899'> +7.2794839e+01 </wgt>
<wgt id='1900'> +7.2948852e+01 </wgt>
<wgt id='1901'> +7.2803486e+01 </wgt>
<wgt id='1902'> +7.2934224e+01 </wgt>
<wgt id='1903'> +7.2929924e+01 </wgt>
<wgt id='1904'> +7.2892413e+01 </wgt>
<wgt id='1905'> +7.2840982e+01 </wgt>
<wgt id='1906'> +7.2795528e+01 </wgt>
<wgt id='1907'> +7.2889157e+01 </wgt>
<wgt id='1908'> +7.2720894e+01 </wgt>
<wgt id='1909'> +7.2802544e+01 </wgt>
<wgt id='1910'> +7.2854400e+01 </wgt>
<wgt id='1911'> +7.2825093e+01 </wgt>
<wgt id='1912'> +7.2920096e+01 </wgt>
<wgt id='1913'> +7.2741750e+01 </wgt>
<wgt id='1914'> +7.2817493e+01 </wgt>
<wgt id='1915'> +7.2831909e+01 </wgt>
<wgt id='1916'> +7.2851126e+01 </wgt>
<wgt id='1917'> +7.2851343e+01 </wgt>
<wgt id='1918'> +7.2755266e+01 </wgt>
<wgt id='1919'> +7.2948480e+01 </wgt>
<wgt id='1920'> +7.2777048e+01 </wgt>
<wgt id='1921'> +7.2782449e+01 </wgt>
<wgt id='1922'> +7.2828824e+01 </wgt>
<wgt id='1923'> +7.2850434e+01 </wgt>
<wgt id='1924'> +7.2837697e+01 </wgt>
<wgt id='1925'> +7.2826787e+01 </wgt>
<wgt id='1926'> +7.2837027e+01 </wgt>
<wgt id='1927'> +7.2807536e+01 </wgt>
<wgt id='1928'> +7.2859529e+01 </wgt>
<wgt id='1929'> +7.2847481e+01 </wgt>
<wgt id='1930'> +7.2875976e+01 </wgt>
<wgt id='1931'> +7.2830893e+01 </wgt>
<wgt id='1932'> +7.2834913e+01 </wgt>
<wgt id='1933'> +7.2773667e+01 </wgt>
<wgt id='1934'> +7.2830069e+01 </wgt>
<wgt id='1935'> +7.2913402e+01 </wgt>
<wgt id='1936'> +7.2871156e+01 </wgt>
<wgt id='1937'> +7.2859765e+01 </wgt>
<wgt id='1938'> +7.2858530e+01 </wgt>
<wgt id='1939'> +7.2814506e+01 </wgt>
<wgt id='1940'> +7.2785381e+01 </wgt>
<wgt id='1941'> +7.2887235e+01 </wgt>
<wgt id='1942'> +7.2754916e+01 </wgt>
<wgt id='1943'> +7.2794789e+01 </wgt>
<wgt id='1944'> +7.2796069e+01 </wgt>
<wgt id='1945'> +7.2810594e+01 </wgt>
<wgt id='1946'> +7.2780300e+01 </wgt>
<wgt id='1947'> +7.2792853e+01 </wgt>
<wgt id='1948'> +7.2835714e+01 </wgt>
<wgt id='1949'> +7.2778720e+01 </wgt>
<wgt id='1950'> +7.2819225e+01 </wgt>
<wgt id='1951'> +7.2875051e+01 </wgt>
<wgt id='1952'> +7.2851192e+01 </wgt>
<wgt id='1953'> +7.2797481e+01 </wgt>
<wgt id='1954'> +7.2861283e+01 </wgt>
<wgt id='1955'> +7.2859101e+01 </wgt>
<wgt id='1956'> +7.2839537e+01 </wgt>
<wgt id='1957'> +7.2844417e+01 </wgt>
<wgt id='1958'> +7.2841086e+01 </wgt>
<wgt id='1959'> +7.2841222e+01 </wgt>
<wgt id='1960'> +7.2842611e+01 </wgt>
<wgt id='1961'> +7.2840631e+01 </wgt>
<wgt id='1962'> +7.2845267e+01 </wgt>
</rwgt>
</event>
<event npLO=" -1 " npNLO=" 1 ">
 7      1 +1.5146096e+02 3.54565330e+01 7.54677110e-03 1.37402960e-01
        4 -1    0    0  502    0 +0.0000000000e+00 +0.0000000000e+00 +2.4325404000e+02 2.4325404000e+02 0.0000000000e+00 0.0000e+00 9.0000e+00
       21 -1    0    0  501  502 +0.0000000000e+00 +0.0000000000e+00 -2.1775851000e+01 2.1775851000e+01 0.0000000000e+00 0.0000e+00 9.0000e+00
       23  2    1    2    0    0 -3.5225811000e+01 +4.0383178000e+00 +1.9825136000e+02 2.2264297000e+02 9.4916400000e+01 0.0000e+00 0.0000e+00
       15  1    3    3    0    0 -3.1646896000e+00 -2.6248775000e+01 +1.4730783000e+01 3.0317769000e+01 1.7770000000e+00 0.0000e+00 9.0000e+00
      -15  1    3    3    0    0 -1.6608739000e+01 +3.2305880000e+01 +1.6020461000e+02 1.6428084000e+02 1.7770000000e+00 0.0000e+00 9.0000e+00
       22  1    3    3    0    0 -1.5452382000e+01 -2.0187872000e+00 +2.3315974000e+01 2.8044362000e+01 0.0000000000e+00 0.0000e+00 9.0000e+00
        4  1    1    2  501    0 +3.5225811000e+01 -4.0383178000e+00 +2.3226829000e+01 4.2386924000e+01 0.0000000000e+00 0.0000e+00 9.0000e+00
#aMCatNLO 1  0  0  6  2 0.34105852E+01 0.00000000E+00 -9  7  0 0.00000000E+00 0.00000000E+00 0.00000000E+00 0.00000000E+00 0.00000000E+00
<rwgt>
<wgt id='1001'> +1.5146000e+02 </wgt>
<wgt id='1002'> +1.5146000e+02 </wgt>
<wgt id='1003'> +1.4169000e+02 </wgt>
<wgt id='1004'> +1.5158000e+02 </wgt>
<wgt id='1005'> +1.5225000e+02 </wgt>
<wgt id='1006'> +1.4843000e+02 </wgt>
<wgt id='1007'> +1.3711000e+02 </wgt>
<wgt id='1008'> +1.5527000e+02 </wgt>
<wgt id='1009'> +1.5251000e+02 </wgt>
<wgt id='1010'> +1.5280000e+02 </wgt>
<wgt id='1011'> +1.5333000e+02 </wgt>
<wgt id='1012'> +1.4573000e+02 </wgt>
<wgt id='1013'> +1.4508000e+02 </wgt>
<wgt id='1014'> +1.5494000e+02 </wgt>
<wgt id='1015'> +1.5421000e+02 </wgt>
<wgt id='1016'> +1.4804000e+02 </wgt>
<wgt id='1017'> +1.5554000e+02 </wgt>
<wgt id='1018'> +1.5388000e+02 </wgt>
<wgt id='1019'> +1.5018000e+02 </wgt>
<wgt id='1020'> +1.5122000e+02 </wgt>
<wgt id='1021'> +1.5434000e+02 </wgt>
<wgt id='1022'> +1.5686000e+02 </wgt>
<wgt id='1023'> +1.5280000e+02 </wgt>
<wgt id='1024'> +1.4992000e+02 </wgt>
<wgt id='1025'> +1.6438000e+02 </wgt>
<wgt id='1026'> +1.5089000e+02 </wgt>
<wgt id='1027'> +1.5198000e+02 </wgt>
<wgt id='1028'> +1.5030000e+02 </wgt>
<wgt id='1029'> +1.4999000e+02 </wgt>
<wgt id='1030'> +1.4914000e+02 </wgt>
<wgt id='1031'> +1.5276000e+02 </wgt>
<wgt id='1032'> +1.5684000e+02 </wgt>
<wgt id='1033'> +1.5040000e+02 </wgt>
<wgt id='1034'> +1.4622000e+02 </wgt>
<wgt id='1035'> +1.4973000e+02 </wgt>
<wgt id='1036'> +1.5233000e+02 </wgt>
<wgt id='1037'> +1.5513000e+02 </wgt>
<wgt id='1038'> +1.5284000e+02 </wgt>
<wgt id='1039'> +1.5516000e+02 </wgt>
<wgt id='1040'> +1.5309000e+02 </wgt>
<wgt id='1041'> +1.4825000e+02 </wgt>
<wgt id='1042'> +1.5203000e+02 </wgt>
<wgt id='1043'> +1.5190000e+02 </wgt>
<wgt id='1044'> +1.5146000e+02 </wgt>
<wgt id='1045'> +1.5183000e+02 </wgt>
<wgt id='1046'> +1.5100000e+02 </wgt>
<wgt id='1047'> +1.5052000e+02 </wgt>
<wgt id='1048'> +1.5474000e+02 </wgt>
<wgt id='1049'> +1.4905000e+02 </wgt>
<wgt id='1050'> +1.4992000e+02 </wgt>
<wgt id='1051'> +1.4991000e+02 </wgt>
<wgt id='1052'> +1.5030000e+02 </wgt>
<wgt id='1053'> +1.5070000e+02 </wgt>
<wgt id='1054'> +1.4927000e+02 </wgt>
<wgt id='1055'> +1.5373000e+02 </wgt>
<wgt id='1056'> +1.5170000e+02 </wgt>
<wgt id='1057'> +1.4873000e+02 </wgt>
<wgt id='1058'> +1.4880000e+02 </wgt>
<wgt id='1059'> +1.5523000e+02 </wgt>
<wgt id='1060'> +1.4872000e+02 </wgt>
<wgt id='1061'> +1.5553000e+02 </wgt>
<wgt id='1062'> +1.5062000e+02 </wgt>
<wgt id='1063'> +1.5129000e+02 </wgt>
<wgt id='1064'> +1.5272000e+02 </wgt>
<wgt id='1065'> +1.5107000e+02 </wgt>
<wgt id='1066'> +1.4866000e+02 </wgt>
<wgt id='1067'> +1.5150000e+02 </wgt>
<wgt id='1068'> +1.5203000e+02 </wgt>
<wgt id='1069'> +1.6336000e+02 </wgt>
<wgt id='1070'> +1.4909000e+02 </wgt>
<wgt id='1071'> +1.4580000e+02 </wgt>
<wgt id='1072'> +1.4905000e+02 </wgt>
<wgt id='1073'> +1.5161000e+02 </wgt>
<wgt id='1074'> +1.5291000e+02 </wgt>
<wgt id='1075'> +1.4226000e+02 </wgt>
<wgt id='1076'> +1.5301000e+02 </wgt>
<wgt id='1077'> +1.4985000e+02 </wgt>
<wgt id='1078'> +1.4754000e+02 </wgt>
<wgt id='1079'> +1.5259000e+02 </wgt>
<wgt id='1080'> +1.5615000e+02 </wgt>
<wgt id='1081'> +1.4981000e+02 </wgt>
<wgt id='1082'> +1.5150000e+02 </wgt>
<wgt id='1083'> +1.5225000e+02 </wgt>
<wgt id='1084'> +1.4813000e+02 </wgt>
<wgt id='1085'> +1.5615000e+02 </wgt>
<wgt id='1086'> +1.5045000e+02 </wgt>
<wgt id='1087'> +1.4786000e+02 </wgt>
<wgt id='1088'> +1.4997000e+02 </wgt>
<wgt id='1089'> +1.5129000e+02 </wgt>
<wgt id='1090'> +1.5084000e+02 </wgt>
<wgt id='1091'> +1.5796000e+02 </wgt>
<wgt id='1092'> +1.5014000e+02 </wgt>
<wgt id='1093'> +1.4881000e+02 </wgt>
<wgt id='1094'> +1.5225000e+02 </wgt>
<wgt id='1095'> +1.5136000e+02 </wgt>
<wgt id='1096'> +1.5546000e+02 </wgt>
<wgt id='1097'> +1.4880000e+02 </wgt>
<wgt id='1098'> +1.5390000e+02 </wgt>
<wgt id='1099'> +1.5113000e+02 </wgt>
<wgt id='1100'> +1.5550000e+02 </wgt>
<wgt id='1101'> +1.5427000e+02 </wgt>
<wgt id='1102'> +1.5602000e+02 </wgt>
<wgt id='1103'> +1.4756000e+02 </wgt>
<wgt id='1104'> +1.5424000e+02 </wgt>
<wgt id='1105'> +1.5146096e+02 </wgt>
<wgt id='1106'> +6.5643228e+01 </wgt>
<wgt id='1107'> +8.9277525e+01 </wgt>
<wgt id='1108'> +8.5475387e+01 </wgt>
<wgt id='1109'> +7.4082698e+01 </wgt>
<wgt id='1110'> +1.0077800e+02 </wgt>
<wgt id='1111'> +6.4321047e+01 </wgt>
<wgt id='1112'> +5.5757351e+01 </wgt>
<wgt id='1113'> +7.5820744e+01 </wgt>
<wgt id='1114'> +6.7840787e+01 </wgt>
<wgt id='1115'> +5.5346540e+01 </wgt>
<wgt id='1116'> +6.8932942e+01 </wgt>
<wgt id='1117'> +6.8807639e+01 </wgt>
<wgt id='1118'> +6.8964638e+01 </wgt>
<wgt id='1119'> +6.8126508e+01 </wgt>
<wgt id='1120'> +6.4766880e+01 </wgt>
<wgt id='1121'> +6.7747272e+01 </wgt>
<wgt id='1122'> +7.1208883e+01 </wgt>
<wgt id='1123'> +7.0233954e+01 </wgt>
<wgt id='1124'> +6.9588236e+01 </wgt>
<wgt id='1125'> +7.0635129e+01 </wgt>
<wgt id='1126'> +6.9053790e+01 </wgt>
<wgt id='1127'> +7.0158408e+01 </wgt>
<wgt id='1128'> +6.9141179e+01 </wgt>
<wgt id='1129'> +6.7602620e+01 </wgt>
<wgt id='1130'> +6.8815040e+01 </wgt>
<wgt id='1131'> +6.6599852e+01 </wgt>
<wgt id='1132'> +7.0103127e+01 </wgt>
<wgt id='1133'> +6.4622589e+01 </wgt>
<wgt id='1134'> +7.1693425e+01 </wgt>
<wgt id='1135'> +6.5581014e+01 </wgt>
<wgt id='1136'> +6.1669425e+01 </wgt>
<wgt id='1137'> +6.4125111e+01 </wgt>
<wgt id='1138'> +6.7507430e+01 </wgt>
<wgt id='1139'> +7.1491133e+01 </wgt>
<wgt id='1140'> +6.5425785e+01 </wgt>
<wgt id='1141'> +6.3567342e+01 </wgt>
<wgt id='1142'> +6.8278876e+01 </wgt>
<wgt id='1143'> +6.6855572e+01 </wgt>
<wgt id='1144'> +7.0935076e+01 </wgt>
<wgt id='1145'> +6.4019768e+01 </wgt>
<wgt id='1146'> +7.5150291e+01 </wgt>
<wgt id='1147'> +6.6558531e+01 </wgt>
<wgt id='1148'> +6.9014452e+01 </wgt>
<wgt id='1149'> +6.7481111e+01 </wgt>
<wgt id='1150'> +6.6036476e+01 </wgt>
<wgt id='1151'> +6.7544996e+01 </wgt>
<wgt id='1152'> +6.9541553e+01 </wgt>
<wgt id='1153'> +6.5510430e+01 </wgt>
<wgt id='1154'> +6.8194843e+01 </wgt>
<wgt id='1155'> +6.6560578e+01 </wgt>
<wgt id='1156'> +6.7541397e+01 </wgt>
<wgt id='1157'> +6.3295326e+01 </wgt>
<wgt id='1158'> +6.0714219e+01 </wgt>
<wgt id='1159'> +6.5916160e+01 </wgt>
<wgt id='1160'> +6.3869726e+01 </wgt>
<wgt id='1161'> +6.8374313e+01 </wgt>
<wgt id='1162'> +7.1435034e+01 </wgt>
<wgt id='1163'> +6.7569017e+01 </wgt>
<wgt id='1164'> +6.7948865e+01 </wgt>
<wgt id='1165'> +6.5460620e+01 </wgt>
<wgt id='1166'> +7.0247673e+01 </wgt>
<wgt id='1167'> +7.2363279e+01 </wgt>
<wgt id='1168'> +6.1645205e+01 </wgt>
<wgt id='1169'> +6.4139568e+01 </wgt>
<wgt id='1170'> +6.5302104e+01 </wgt>
<wgt id='1171'> +6.1476965e+01 </wgt>
<wgt id='1172'> +6.7793530e+01 </wgt>
<wgt id='1173'> +7.3717205e+01 </wgt>
<wgt id='1174'> +6.1562426e+01 </wgt>
<wgt id='1175'> +6.6150846e+01 </wgt>
<wgt id='1176'> +6.9683154e+01 </wgt>
<wgt id='1177'> +6.4335314e+01 </wgt>
<wgt id='1178'> +7.3783315e+01 </wgt>
<wgt id='1179'> +6.8340952e+01 </wgt>
<wgt id='1180'> +7.0218464e+01 </wgt>
<wgt id='1181'> +6.0541866e+01 </wgt>
<wgt id='1182'> +6.8268438e+01 </wgt>
<wgt id='1183'> +6.8356669e+01 </wgt>
<wgt id='1184'> +6.8964419e+01 </wgt>
<wgt id='1185'> +6.9301202e+01 </wgt>
<wgt id='1186'> +6.5644789e+01 </wgt>
<wgt id='1187'> +7.8855362e+01 </wgt>
<wgt id='1188'> +7.6278789e+01 </wgt>
<wgt id='1189'> +7.0396659e+01 </wgt>
<wgt id='1190'> +5.9310305e+01 </wgt>
<wgt id='1191'> +7.2392633e+01 </wgt>
<wgt id='1192'> +6.8114627e+01 </wgt>
<wgt id='1193'> +6.9502649e+01 </wgt>
<wgt id='1194'> +6.9650430e+01 </wgt>
<wgt id='1195'> +6.6574173e+01 </wgt>
<wgt id='1196'> +6.8815040e+01 </wgt>
<wgt id='1197'> +6.6852464e+01 </wgt>
<wgt id='1198'> +7.0227762e+01 </wgt>
<wgt id='1199'> +7.1236121e+01 </wgt>
<wgt id='1200'> +6.1658141e+01 </wgt>
<wgt id='1201'> +6.9902471e+01 </wgt>
<wgt id='1202'> +6.8225638e+01 </wgt>
<wgt id='1203'> +7.8201874e+01 </wgt>
<wgt id='1204'> +6.7923618e+01 </wgt>
<wgt id='1205'> +6.3879509e+01 </wgt>
<wgt id='1206'> +7.3928599e+01 </wgt>
<wgt id='1207'> +6.9483511e+01 </wgt>
<wgt id='1208'> +6.9097847e+01 </wgt>
<wgt id='1209'> +6.6811048e+01 </wgt>
<wgt id='1210'> +6.6343912e+01 </wgt>
<wgt id='1211'> +6.1569697e+01 </wgt>
<wgt id='1212'> +7.1073230e+01 </wgt>
<wgt id='1213'> +7.4067942e+01 </wgt>
<wgt id='1214'> +6.7047234e+01 </wgt>
<wgt id='1215'> +7.7908485e+01 </wgt>
<wgt id='1216'> +6.4743180e+01 </wgt>
<wgt id='1217'> +6.4921240e+01 </wgt>
<wgt id='1218'> +6.4497939e+01 </wgt>
<wgt id='1219'> +6.4952680e+01 </wgt>
<wgt id='1220'> +6.4578684e+01 </wgt>
<wgt id='1221'> +6.4932950e+01 </wgt>
<wgt id='1222'> +6.4597150e+01 </wgt>
<wgt id='1223'> +6.4453545e+01 </wgt>
<wgt id='1224'> +6.4488208e+01 </wgt>
<wgt id='1225'> +6.4166786e+01 </wgt>
<wgt id='1226'> +6.4951219e+01 </wgt>
<wgt id='1227'> +6.4875251e+01 </wgt>
<wgt id='1228'> +6.5186743e+01 </wgt>
<wgt id='1229'> +6.4205201e+01 </wgt>
<wgt id='1230'> +6.4315070e+01 </wgt>
<wgt id='1231'> +6.5300506e+01 </wgt>
<wgt id='1232'> +6.4265018e+01 </wgt>
<wgt id='1233'> +6.5457884e+01 </wgt>
<wgt id='1234'> +6.4809532e+01 </wgt>
<wgt id='1235'> +6.4855245e+01 </wgt>
<wgt id='1236'> +6.5194485e+01 </wgt>
<wgt id='1237'> +6.3501884e+01 </wgt>
<wgt id='1238'> +6.4710980e+01 </wgt>
<wgt id='1239'> +6.4495429e+01 </wgt>
<wgt id='1240'> +6.3763974e+01 </wgt>
<wgt id='1241'> +6.5266268e+01 </wgt>
<wgt id='1242'> +6.4968732e+01 </wgt>
<wgt id='1243'> +6.5000102e+01 </wgt>
<wgt id='1244'> +6.4497885e+01 </wgt>
<wgt id='1245'> +6.3833299e+01 </wgt>
<wgt id='1246'> +6.4776226e+01 </wgt>
<wgt id='1247'> +6.5088878e+01 </wgt>
<wgt id='1248'> +6.5073991e+01 </wgt>
<wgt id='1249'> +6.4831698e+01 </wgt>
<wgt id='1250'> +6.5075916e+01 </wgt>
<wgt id='1251'> +6.5009294e+01 </wgt>
<wgt id='1252'> +6.5140117e+01 </wgt>
<wgt id='1253'> +6.5099946e+01 </wgt>
<wgt id='1254'> +6.5206607e+01 </wgt>
<wgt id='1255'> +6.4920181e+01 </wgt>
<wgt id='1256'> +6.4763265e+01 </wgt>
<wgt id='1257'> +6.5510764e+01 </wgt>
<wgt id='1258'> +6.5025904e+01 </wgt>
<wgt id='1259'> +6.4301031e+01 </wgt>
<wgt id='1260'> +6.5193253e+01 </wgt>
<wgt id='1261'> +6.4599420e+01 </wgt>
<wgt id='1262'> +6.4955415e+01 </wgt>
<wgt id='1263'> +6.4843341e+01 </wgt>
<wgt id='1264'> +6.4522432e+01 </wgt>
<wgt id='1265'> +6.4429164e+01 </wgt>
<wgt id='1266'> +6.4431197e+01 </wgt>
<wgt id='1267'> +6.4360537e+01 </wgt>
<wgt id='1268'> +6.5036117e+01 </wgt>
<wgt id='1269'> +6.5036104e+01 </wgt>
<wgt id='1270'> +6.4817815e+01 </wgt>
<wgt id='1271'> +6.4820417e+01 </wgt>
<wgt id='1272'> +6.4295902e+01 </wgt>
<wgt id='1273'> +6.5207142e+01 </wgt>
<wgt id='1274'> +6.5003681e+01 </wgt>
<wgt id='1275'> +6.4605228e+01 </wgt>
<wgt id='1276'> +6.4367800e+01 </wgt>
<wgt id='1277'> +6.4424661e+01 </wgt>
<wgt id='1278'> +6.4366583e+01 </wgt>
<wgt id='1279'> +6.4132851e+01 </wgt>
<wgt id='1280'> +6.4803120e+01 </wgt>
<wgt id='1281'> +6.4636019e+01 </wgt>
<wgt id='1282'> +6.4467361e+01 </wgt>
<wgt id='1283'> +6.5275795e+01 </wgt>
<wgt id='1284'> +6.4903424e+01 </wgt>
<wgt id='1285'> +6.5248361e+01 </wgt>
<wgt id='1286'> +6.5053955e+01 </wgt>
<wgt id='1287'> +6.4662115e+01 </wgt>
<wgt id='1288'> +6.4543741e+01 </wgt>
<wgt id='1289'> +6.5081427e+01 </wgt>
<wgt id='1290'> +6.4300435e+01 </wgt>
<wgt id='1291'> +6.4885806e+01 </wgt>
<wgt id='1292'> +6.4811442e+01 </wgt>
<wgt id='1293'> +6.4393797e+01 </wgt>
<wgt id='1294'> +6.4751461e+01 </wgt>
<wgt id='1295'> +6.4907256e+01 </wgt>
<wgt id='1296'> +6.4913972e+01 </wgt>
<wgt id='1297'> +6.4822369e+01 </wgt>
<wgt id='1298'> +6.4809289e+01 </wgt>
<wgt id='1299'> +6.4488796e+01 </wgt>
<wgt id='1300'> +6.4862770e+01 </wgt>
<wgt id='1301'> +6.4624172e+01 </wgt>
<wgt id='1302'> +6.4973133e+01 </wgt>
<wgt id='1303'> +6.4939496e+01 </wgt>
<wgt id='1304'> +6.4968288e+01 </wgt>
<wgt id='1305'> +6.4943895e+01 </wgt>
<wgt id='1306'> +6.4718536e+01 </wgt>
<wgt id='1307'> +6.4748249e+01 </wgt>
<wgt id='1308'> +6.4795275e+01 </wgt>
<wgt id='1309'> +6.4493520e+01 </wgt>
<wgt id='1310'> +6.4667494e+01 </wgt>
<wgt id='1311'> +6.4413157e+01 </wgt>
<wgt id='1312'> +6.4721400e+01 </wgt>
<wgt id='1313'> +6.4696190e+01 </wgt>
<wgt id='1314'> +6.5016663e+01 </wgt>
<wgt id='1315'> +6.4324485e+01 </wgt>
<wgt id='1316'> +6.4818291e+01 </wgt>
<wgt id='1317'> +6.0518304e+01 </wgt>
<wgt id='1318'> +6.9300351e+01 </wgt>
<wgt id='1319'> +6.6332407e+01 </wgt>
<wgt id='1320'> +7.3240639e+01 </wgt>
<wgt id='1321'> +7.3255361e+01 </wgt>
<wgt id='1322'> +7.3402777e+01 </wgt>
<wgt id='1323'> +7.3762763e+01 </wgt>
<wgt id='1324'> +7.2593059e+01 </wgt>
<wgt id='1325'> +7.3401221e+01 </wgt>
<wgt id='1326'> +7.3103989e+01 </wgt>
<wgt id='1327'> +7.3952272e+01 </wgt>
<wgt id='1328'> +7.2812537e+01 </wgt>
<wgt id='1329'> +7.1970965e+01 </wgt>
<wgt id='1330'> +7.3848642e+01 </wgt>
<wgt id='1331'> +7.4757368e+01 </wgt>
<wgt id='1332'> +7.2271667e+01 </wgt>
<wgt id='1333'> +7.0625754e+01 </wgt>
<wgt id='1334'> +7.4777079e+01 </wgt>
<wgt id='1335'> +7.4550505e+01 </wgt>
<wgt id='1336'> +7.2393613e+01 </wgt>
<wgt id='1337'> +7.1949539e+01 </wgt>
<wgt id='1338'> +7.4773665e+01 </wgt>
<wgt id='1339'> +7.4315892e+01 </wgt>
<wgt id='1340'> +7.2048549e+01 </wgt>
<wgt id='1341'> +7.3489433e+01 </wgt>
<wgt id='1342'> +7.2711520e+01 </wgt>
<wgt id='1343'> +7.2918035e+01 </wgt>
<wgt id='1344'> +7.3511186e+01 </wgt>
<wgt id='1345'> +7.2982608e+01 </wgt>
<wgt id='1346'> +7.3440234e+01 </wgt>
<wgt id='1347'> +7.3076532e+01 </wgt>
<wgt id='1348'> +7.3453264e+01 </wgt>
<wgt id='1349'> +7.2712114e+01 </wgt>
<wgt id='1350'> +7.3424797e+01 </wgt>
<wgt id='1351'> +7.3459830e+01 </wgt>
<wgt id='1352'> +7.2954836e+01 </wgt>
<wgt id='1353'> +7.2959857e+01 </wgt>
<wgt id='1354'> +7.3844591e+01 </wgt>
<wgt id='1355'> +7.3804658e+01 </wgt>
<wgt id='1356'> +7.2708972e+01 </wgt>
<wgt id='1357'> +7.3718514e+01 </wgt>
<wgt id='1358'> +7.2420519e+01 </wgt>
<wgt id='1359'> +7.3131643e+01 </wgt>
<wgt id='1360'> +7.3243959e+01 </wgt>
<wgt id='1361'> +7.3658754e+01 </wgt>
<wgt id='1362'> +7.2873782e+01 </wgt>
<wgt id='1363'> +7.3706167e+01 </wgt>
<wgt id='1364'> +7.3089122e+01 </wgt>
<wgt id='1365'> +7.2067673e+01 </wgt>
<wgt id='1366'> +7.3228948e+01 </wgt>
<wgt id='1367'> +7.2638866e+01 </wgt>
<wgt id='1368'> +7.2819109e+01 </wgt>
<wgt id='1369'> +7.2458804e+01 </wgt>
<wgt id='1370'> +7.2368895e+01 </wgt>
<wgt id='1371'> +7.3127387e+01 </wgt>
<wgt id='1372'> +7.3153432e+01 </wgt>
<wgt id='1373'> +7.0947577e+01 </wgt>
<wgt id='1374'> +7.3774160e+01 </wgt>
<wgt id='1375'> +7.2611591e+01 </wgt>
<wgt id='1376'> +7.4220098e+01 </wgt>
<wgt id='1377'> +6.9533988e+01 </wgt>
<wgt id='1378'> +7.7008787e+01 </wgt>
<wgt id='1379'> +7.5907116e+01 </wgt>
<wgt id='1380'> +7.2143211e+01 </wgt>
<wgt id='1381'> +7.9585937e+01 </wgt>
<wgt id='1382'> +6.0764247e+01 </wgt>
<wgt id='1383'> +7.2839176e+01 </wgt>
<wgt id='1384'> +7.3568388e+01 </wgt>
<wgt id='1385'> +9.7127111e+01 </wgt>
<wgt id='1386'> +9.7219738e+01 </wgt>
<wgt id='1387'> +9.7033332e+01 </wgt>
<wgt id='1388'> +9.6597446e+01 </wgt>
<wgt id='1389'> +9.8044406e+01 </wgt>
<wgt id='1390'> +9.6892512e+01 </wgt>
<wgt id='1391'> +9.7412886e+01 </wgt>
<wgt id='1392'> +9.6957417e+01 </wgt>
<wgt id='1393'> +9.7248053e+01 </wgt>
<wgt id='1394'> +9.6790827e+01 </wgt>
<wgt id='1395'> +9.7555445e+01 </wgt>
<wgt id='1396'> +9.6158362e+01 </wgt>
<wgt id='1397'> +9.7634253e+01 </wgt>
<wgt id='1398'> +9.7606039e+01 </wgt>
<wgt id='1399'> +9.6768451e+01 </wgt>
<wgt id='1400'> +9.6683726e+01 </wgt>
<wgt id='1401'> +9.7467292e+01 </wgt>
<wgt id='1402'> +9.6883228e+01 </wgt>
<wgt id='1403'> +9.7245000e+01 </wgt>
<wgt id='1404'> +9.8535030e+01 </wgt>
<wgt id='1405'> +9.6450699e+01 </wgt>
<wgt id='1406'> +9.7001897e+01 </wgt>
<wgt id='1407'> +9.7364175e+01 </wgt>
<wgt id='1408'> +9.7141060e+01 </wgt>
<wgt id='1409'> +9.7117884e+01 </wgt>
<wgt id='1410'> +9.7078220e+01 </wgt>
<wgt id='1411'> +9.7189182e+01 </wgt>
<wgt id='1412'> +9.7846596e+01 </wgt>
<wgt id='1413'> +9.6195464e+01 </wgt>
<wgt id='1414'> +9.7635635e+01 </wgt>
<wgt id='1415'> +9.6807580e+01 </wgt>
<wgt id='1416'> +9.7287109e+01 </wgt>
<wgt id='1417'> +9.7040206e+01 </wgt>
<wgt id='1418'> +9.7602879e+01 </wgt>
<wgt id='1419'> +9.6114916e+01 </wgt>
<wgt id='1420'> +9.6487491e+01 </wgt>
<wgt id='1421'> +9.7118946e+01 </wgt>
<wgt id='1422'> +9.7429737e+01 </wgt>
<wgt id='1423'> +9.6787901e+01 </wgt>
<wgt id='1424'> +9.7607655e+01 </wgt>
<wgt id='1425'> +9.6134762e+01 </wgt>
<wgt id='1426'> +9.7378065e+01 </wgt>
<wgt id='1427'> +9.6903833e+01 </wgt>
<wgt id='1428'> +9.7623830e+01 </wgt>
<wgt id='1429'> +9.7091328e+01 </wgt>
<wgt id='1430'> +9.7124193e+01 </wgt>
<wgt id='1431'> +9.7140609e+01 </wgt>
<wgt id='1432'> +9.7066277e+01 </wgt>
<wgt id='1433'> +9.7195304e+01 </wgt>
<wgt id='1434'> +9.7065560e+01 </wgt>
<wgt id='1435'> +9.7184739e+01 </wgt>
<wgt id='1436'> +0.0000000e+00 </wgt>
<wgt id='1437'> +0.0000000e+00 </wgt>
<wgt id='1438'> +0.0000000e+00 </wgt>
<wgt id='1439'> +0.0000000e+00 </wgt>
<wgt id='1440'> +0.0000000e+00 </wgt>
<wgt id='1441'> +0.0000000e+00 </wgt>
<wgt id='1442'> +0.0000000e+00 </wgt>
<wgt id='1443'> +0.0000000e+00 </wgt>
<wgt id='1444'> +0.0000000e+00 </wgt>
<wgt id='1445'> +0.0000000e+00 </wgt>
<wgt id='1446'> +0.0000000e+00 </wgt>
<wgt id='1447'> +0.0000000e+00 </wgt>
<wgt id='1448'> +0.0000000e+00 </wgt>
<wgt id='1449'> +0.0000000e+00 </wgt>
<wgt id='1450'> +0.0000000e+00 </wgt>
<wgt id='1451'> +0.0000000e+00 </wgt>
<wgt id='1452'> +0.0000000e+00 </wgt>
<wgt id='1453'> +0.0000000e+00 </wgt>
<wgt id='1454'> +0.0000000e+00 </wgt>
<wgt id='1455'> +0.0000000e+00 </wgt>
<wgt id='1456'> +0.0000000e+00 </wgt>
<wgt id='1457'> +0.0000000e+00 </wgt>
<wgt id='1458'> +0.0000000e+00 </wgt>
<wgt id='1459'> +0.0000000e+00 </wgt>
<wgt id='1460'> +0.0000000e+00 </wgt>
<wgt id='1461'> +0.0000000e+00 </wgt>
<wgt id='1462'> +0.0000000e+00 </wgt>
<wgt id='1463'> +0.0000000e+00 </wgt>
<wgt id='1464'> +0.0000000e+00 </wgt>
<wgt id='1465'> +7.4503626e+01 </wgt>
<wgt id='1466'> +7.3953799e+01 </wgt>
<wgt id='1467'> +7.3375586e+01 </wgt>
<wgt id='1468'> +7.4411724e+01 </wgt>
<wgt id='1469'> +7.4256124e+01 </wgt>
<wgt id='1470'> +7.3668412e+01 </wgt>
<wgt id='1471'> +7.4007485e+01 </wgt>
<wgt id='1472'> +7.3903220e+01 </wgt>
<wgt id='1473'> +7.4035835e+01 </wgt>
<wgt id='1474'> +7.3789711e+01 </wgt>
<wgt id='1475'> +7.3990327e+01 </wgt>
<wgt id='1476'> +7.5119399e+01 </wgt>
<wgt id='1477'> +7.3834270e+01 </wgt>
<wgt id='1478'> +7.3170808e+01 </wgt>
<wgt id='1479'> +7.4383455e+01 </wgt>
<wgt id='1480'> +7.2739009e+01 </wgt>
<wgt id='1481'> +7.4288640e+01 </wgt>
<wgt id='1482'> +7.3738066e+01 </wgt>
<wgt id='1483'> +7.3350630e+01 </wgt>
<wgt id='1484'> +7.3843810e+01 </wgt>
<wgt id='1485'> +7.3523973e+01 </wgt>
<wgt id='1486'> +7.3621349e+01 </wgt>
<wgt id='1487'> +7.3795395e+01 </wgt>
<wgt id='1488'> +7.4169198e+01 </wgt>
<wgt id='1489'> +7.3571636e+01 </wgt>
<wgt id='1490'> +7.4004751e+01 </wgt>
<wgt id='1491'> +7.4334475e+01 </wgt>
<wgt id='1492'> +7.3943398e+01 </wgt>
<wgt id='1493'> +7.3862063e+01 </wgt>
<wgt id='1494'> +7.3915646e+01 </wgt>
<wgt id='1495'> +7.3910731e+01 </wgt>
<wgt id='1496'> +7.3973371e+01 </wgt>
<wgt id='1497'> +7.3927161e+01 </wgt>
<wgt id='1498'> +7.3974874e+01 </wgt>
<wgt id='1499'> +7.3900228e+01 </wgt>
<wgt id='1500'> +7.4051476e+01 </wgt>
<wgt id='1501'> +7.4039670e+01 </wgt>
<wgt id='1502'> +7.3901298e+01 </wgt>
<wgt id='1503'> +7.3970895e+01 </wgt>
<wgt id='1504'> +7.3847690e+01 </wgt>
<wgt id='1505'> +7.3969731e+01 </wgt>
<wgt id='1506'> +7.3993445e+01 </wgt>
<wgt id='1507'> +7.3931957e+01 </wgt>
<wgt id='1508'> +7.3955777e+01 </wgt>
<wgt id='1509'> +7.3895014e+01 </wgt>
<wgt id='1510'> +7.3999288e+01 </wgt>
<wgt id='1511'> +7.3979995e+01 </wgt>
<wgt id='1512'> +7.3949520e+01 </wgt>
<wgt id='1513'> +7.4015927e+01 </wgt>
<wgt id='1514'> +7.3904290e+01 </wgt>
<wgt id='1515'> +7.3956872e+01 </wgt>
<wgt id='1516'> +7.3948574e+01 </wgt>
<wgt id='1517'> +7.3900413e+01 </wgt>
<wgt id='1518'> +7.3942514e+01 </wgt>
<wgt id='1519'> +7.3931058e+01 </wgt>
<wgt id='1520'> +7.3941714e+01 </wgt>
<wgt id='1521'> +7.3933637e+01 </wgt>
<wgt id='1522'> +7.3970211e+01 </wgt>
<wgt id='1523'> +7.3936117e+01 </wgt>
<wgt id='1524'> +7.3965273e+01 </wgt>
<wgt id='1525'> +7.3938685e+01 </wgt>
<wgt id='1526'> +7.3936228e+01 </wgt>
<wgt id='1527'> +7.3942971e+01 </wgt>
<wgt id='1528'> +7.3918750e+01 </wgt>
<wgt id='1529'> +7.3954407e+01 </wgt>
<wgt id='1530'> +7.3933860e+01 </wgt>
<wgt id='1531'> +7.3936662e+01 </wgt>
<wgt id='1532'> +7.4016913e+01 </wgt>
<wgt id='1533'> +7.3991015e+01 </wgt>
<wgt id='1534'> +7.3966052e+01 </wgt>
<wgt id='1535'> +7.3959504e+01 </wgt>
<wgt id='1536'> +7.3921478e+01 </wgt>
<wgt id='1537'> +7.3973376e+01 </wgt>
<wgt id='1538'> +7.3938667e+01 </wgt>
<wgt id='1539'> +7.3893930e+01 </wgt>
<wgt id='1540'> +7.3940281e+01 </wgt>
<wgt id='1541'> +7.3966765e+01 </wgt>
<wgt id='1542'> +7.3976612e+01 </wgt>
<wgt id='1543'> +7.3893814e+01 </wgt>
<wgt id='1544'> +7.3974957e+01 </wgt>
<wgt id='1545'> +7.3985581e+01 </wgt>
<wgt id='1546'> +7.3937878e+01 </wgt>
<wgt id='1547'> +7.3919490e+01 </wgt>
<wgt id='1548'> +7.3971174e+01 </wgt>
<wgt id='1549'> +7.3972519e+01 </wgt>
<wgt id='1550'> +7.3986095e+01 </wgt>
<wgt id='1551'> +7.3950460e+01 </wgt>
<wgt id='1552'> +7.4027202e+01 </wgt>
<wgt id='1553'> +7.3977838e+01 </wgt>
<wgt id='1554'> +7.3957316e+01 </wgt>
<wgt id='1555'> +7.3970148e+01 </wgt>
<wgt id='1556'> +7.3943216e+01 </wgt>
<wgt id='1557'> +7.3904718e+01 </wgt>
<wgt id='1558'> +7.3949395e+01 </wgt>
<wgt id='1559'> +7.3933761e+01 </wgt>
<wgt id='1560'> +7.3929611e+01 </wgt>
<wgt id='1561'> +7.3936206e+01 </wgt>
<wgt id='1562'> +7.3914615e+01 </wgt>
<wgt id='1563'> +7.3983971e+01 </wgt>
<wgt id='1564'> +7.3960897e+01 </wgt>
<wgt id='1565'> +7.3977464e+01 </wgt>
<wgt id='1566'> +7.3959170e+01 </wgt>
<wgt id='1567'> +7.1413332e+01 </wgt>
<wgt id='1568'> +7.6412618e+01 </wgt>
<wgt id='1569'> +7.5735713e+01 </wgt>
<wgt id='1570'> +7.5384916e+01 </wgt>
<wgt id='1571'> +7.6016374e+01 </wgt>
<wgt id='1572'> +7.5138385e+01 </wgt>
<wgt id='1573'> +7.5553546e+01 </wgt>
<wgt id='1574'> +7.6053257e+01 </wgt>
<wgt id='1575'> +7.5864278e+01 </wgt>
<wgt id='1576'> +7.5977779e+01 </wgt>
<wgt id='1577'> +7.5873042e+01 </wgt>
<wgt id='1578'> +7.5721254e+01 </wgt>
<wgt id='1579'> +7.5318601e+01 </wgt>
<wgt id='1580'> +7.7057689e+01 </wgt>
<wgt id='1581'> +7.5367342e+01 </wgt>
<wgt id='1582'> +7.4718436e+01 </wgt>
<wgt id='1583'> +7.5084893e+01 </wgt>
<wgt id='1584'> +7.5173168e+01 </wgt>
<wgt id='1585'> +7.7042344e+01 </wgt>
<wgt id='1586'> +7.5244679e+01 </wgt>
<wgt id='1587'> +7.5457376e+01 </wgt>
<wgt id='1588'> +7.5856248e+01 </wgt>
<wgt id='1589'> +7.6555864e+01 </wgt>
<wgt id='1590'> +7.5514687e+01 </wgt>
<wgt id='1591'> +7.5876042e+01 </wgt>
<wgt id='1592'> +7.5498964e+01 </wgt>
<wgt id='1593'> +7.5431448e+01 </wgt>
<wgt id='1594'> +7.5543171e+01 </wgt>
<wgt id='1595'> +7.5470597e+01 </wgt>
<wgt id='1596'> +7.5896452e+01 </wgt>
<wgt id='1597'> +7.5931520e+01 </wgt>
<wgt id='1598'> +7.5740093e+01 </wgt>
<wgt id='1599'> +7.5685938e+01 </wgt>
<wgt id='1600'> +7.5965022e+01 </wgt>
<wgt id='1601'> +7.5723562e+01 </wgt>
<wgt id='1602'> +7.5762792e+01 </wgt>
<wgt id='1603'> +7.5714619e+01 </wgt>
<wgt id='1604'> +7.5810254e+01 </wgt>
<wgt id='1605'> +7.5752075e+01 </wgt>
<wgt id='1606'> +7.5826480e+01 </wgt>
<wgt id='1607'> +7.5724054e+01 </wgt>
<wgt id='1608'> +7.5644364e+01 </wgt>
<wgt id='1609'> +7.5651289e+01 </wgt>
<wgt id='1610'> +7.5626210e+01 </wgt>
<wgt id='1611'> +7.5662925e+01 </wgt>
<wgt id='1612'> +7.5808346e+01 </wgt>
<wgt id='1613'> +7.5730135e+01 </wgt>
<wgt id='1614'> +7.5673340e+01 </wgt>
<wgt id='1615'> +7.5708050e+01 </wgt>
<wgt id='1616'> +7.5648989e+01 </wgt>
<wgt id='1617'> +7.5800081e+01 </wgt>
<wgt id='1618'> +7.5663929e+01 </wgt>
<wgt id='1619'> +7.5771916e+01 </wgt>
<wgt id='1620'> +7.5752968e+01 </wgt>
<wgt id='1621'> +7.5748615e+01 </wgt>
<wgt id='1622'> +7.5773246e+01 </wgt>
<wgt id='1623'> +7.5745644e+01 </wgt>
<wgt id='1624'> +7.5748492e+01 </wgt>
<wgt id='1625'> +7.5710653e+01 </wgt>
<wgt id='1626'> +7.5725405e+01 </wgt>
<wgt id='1627'> +7.5774865e+01 </wgt>
<wgt id='1628'> +7.5755695e+01 </wgt>
<wgt id='1629'> +7.5767997e+01 </wgt>
<wgt id='1630'> +7.5759699e+01 </wgt>
<wgt id='1631'> +7.5728579e+01 </wgt>
<wgt id='1632'> +7.5732385e+01 </wgt>
<wgt id='1633'> +7.5743582e+01 </wgt>
<wgt id='1634'> +7.5725285e+01 </wgt>
<wgt id='1635'> +7.5735269e+01 </wgt>
<wgt id='1636'> +7.5716855e+01 </wgt>
<wgt id='1637'> +7.5755356e+01 </wgt>
<wgt id='1638'> +7.5733366e+01 </wgt>
<wgt id='1639'> +7.5714092e+01 </wgt>
<wgt id='1640'> +7.5801887e+01 </wgt>
<wgt id='1641'> +7.5758819e+01 </wgt>
<wgt id='1642'> +7.5691925e+01 </wgt>
<wgt id='1643'> +7.5744039e+01 </wgt>
<wgt id='1644'> +7.5736815e+01 </wgt>
<wgt id='1645'> +7.5790140e+01 </wgt>
<wgt id='1646'> +7.5756326e+01 </wgt>
<wgt id='1647'> +7.5788505e+01 </wgt>
<wgt id='1648'> +7.5728268e+01 </wgt>
<wgt id='1649'> +7.5720256e+01 </wgt>
<wgt id='1650'> +7.5779438e+01 </wgt>
<wgt id='1651'> +7.5766640e+01 </wgt>
<wgt id='1652'> +7.5711950e+01 </wgt>
<wgt id='1653'> +7.5697477e+01 </wgt>
<wgt id='1654'> +7.5736644e+01 </wgt>
<wgt id='1655'> +7.5796115e+01 </wgt>
<wgt id='1656'> +7.5683909e+01 </wgt>
<wgt id='1657'> +7.5696871e+01 </wgt>
<wgt id='1658'> +7.5694427e+01 </wgt>
<wgt id='1659'> +7.5735087e+01 </wgt>
<wgt id='1660'> +7.5701926e+01 </wgt>
<wgt id='1661'> +7.5707852e+01 </wgt>
<wgt id='1662'> +7.5735417e+01 </wgt>
<wgt id='1663'> +7.5694385e+01 </wgt>
<wgt id='1664'> +7.5748065e+01 </wgt>
<wgt id='1665'> +7.5734387e+01 </wgt>
<wgt id='1666'> +7.5747300e+01 </wgt>
<wgt id='1667'> +7.5729024e+01 </wgt>
<wgt id='1668'> +7.5731082e+01 </wgt>
<wgt id='1669'> +7.5742987e+01 </wgt>
<wgt id='1670'> +7.3372098e+01 </wgt>
<wgt id='1671'> +7.7838188e+01 </wgt>
<wgt id='1672'> +7.3962931e+01 </wgt>
<wgt id='1673'> +7.3888767e+01 </wgt>
<wgt id='1674'> +7.2959270e+01 </wgt>
<wgt id='1675'> +7.3908008e+01 </wgt>
<wgt id='1676'> +7.3011841e+01 </wgt>
<wgt id='1677'> +7.5441367e+01 </wgt>
<wgt id='1678'> +7.3344969e+01 </wgt>
<wgt id='1679'> +7.3952950e+01 </wgt>
<wgt id='1680'> +7.4256925e+01 </wgt>
<wgt id='1681'> +7.3710074e+01 </wgt>
<wgt id='1682'> +7.4136463e+01 </wgt>
<wgt id='1683'> +7.3754078e+01 </wgt>
<wgt id='1684'> +7.4035399e+01 </wgt>
<wgt id='1685'> +7.4004756e+01 </wgt>
<wgt id='1686'> +7.3799053e+01 </wgt>
<wgt id='1687'> +7.4151275e+01 </wgt>
<wgt id='1688'> +7.3804505e+01 </wgt>
<wgt id='1689'> +7.3696700e+01 </wgt>
<wgt id='1690'> +7.4160359e+01 </wgt>
<wgt id='1691'> +7.4047397e+01 </wgt>
<wgt id='1692'> +7.4014137e+01 </wgt>
<wgt id='1693'> +7.3857666e+01 </wgt>
<wgt id='1694'> +7.3762107e+01 </wgt>
<wgt id='1695'> +7.3968019e+01 </wgt>
<wgt id='1696'> +7.3664044e+01 </wgt>
<wgt id='1697'> +7.3948549e+01 </wgt>
<wgt id='1698'> +7.4100288e+01 </wgt>
<wgt id='1699'> +7.4220507e+01 </wgt>
<wgt id='1700'> +7.4621237e+01 </wgt>
<wgt id='1701'> +7.4123022e+01 </wgt>
<wgt id='1702'> +7.4014609e+01 </wgt>
<wgt id='1703'> +7.1413332e+01 </wgt>
<wgt id='1704'> +7.6412618e+01 </wgt>
<wgt id='1705'> +7.5737182e+01 </wgt>
<wgt id='1706'> +7.4537120e+01 </wgt>
<wgt id='1707'> +7.5817816e+01 </wgt>
<wgt id='1708'> +7.5579332e+01 </wgt>
<wgt id='1709'> +7.6017119e+01 </wgt>
<wgt id='1710'> +7.4406784e+01 </wgt>
<wgt id='1711'> +7.5711185e+01 </wgt>
<wgt id='1712'> +7.5667841e+01 </wgt>
<wgt id='1713'> +7.5209893e+01 </wgt>
<wgt id='1714'> +7.5601703e+01 </wgt>
<wgt id='1715'> +7.6043011e+01 </wgt>
<wgt id='1716'> +7.5690016e+01 </wgt>
<wgt id='1717'> +7.5791710e+01 </wgt>
<wgt id='1718'> +7.5812086e+01 </wgt>
<wgt id='1719'> +7.5502134e+01 </wgt>
<wgt id='1720'> +7.5207996e+01 </wgt>
<wgt id='1721'> +7.5363407e+01 </wgt>
<wgt id='1722'> +7.6515666e+01 </wgt>
<wgt id='1723'> +7.5580388e+01 </wgt>
<wgt id='1724'> +7.5648343e+01 </wgt>
<wgt id='1725'> +7.6323528e+01 </wgt>
<wgt id='1726'> +7.5985149e+01 </wgt>
<wgt id='1727'> +7.7238882e+01 </wgt>
<wgt id='1728'> +7.5821023e+01 </wgt>
<wgt id='1729'> +7.6006641e+01 </wgt>
<wgt id='1730'> +7.5658152e+01 </wgt>
<wgt id='1731'> +7.5917546e+01 </wgt>
<wgt id='1732'> +7.5924364e+01 </wgt>
<wgt id='1733'> +7.6097388e+01 </wgt>
<wgt id='1734'> +7.5760627e+01 </wgt>
<wgt id='1735'> +7.5756250e+01 </wgt>
<wgt id='1736'> +7.3372098e+01 </wgt>
<wgt id='1737'> +7.7838188e+01 </wgt>
<wgt id='1738'> +7.3211261e+01 </wgt>
<wgt id='1739'> +7.3079664e+01 </wgt>
<wgt id='1740'> +7.3342533e+01 </wgt>
<wgt id='1741'> +7.3421635e+01 </wgt>
<wgt id='1742'> +7.3001317e+01 </wgt>
<wgt id='1743'> +7.3356428e+01 </wgt>
<wgt id='1744'> +7.3066482e+01 </wgt>
<wgt id='1745'> +7.3539857e+01 </wgt>
<wgt id='1746'> +7.2890460e+01 </wgt>
<wgt id='1747'> +7.3283132e+01 </wgt>
<wgt id='1748'> +7.3143354e+01 </wgt>
<wgt id='1749'> +7.2830107e+01 </wgt>
<wgt id='1750'> +7.3612088e+01 </wgt>
<wgt id='1751'> +7.2882997e+01 </wgt>
<wgt id='1752'> +7.3543352e+01 </wgt>
<wgt id='1753'> +7.3277172e+01 </wgt>
<wgt id='1754'> +7.3062738e+01 </wgt>
<wgt id='1755'> +7.3554238e+01 </wgt>
<wgt id='1756'> +7.2882349e+01 </wgt>
<wgt id='1757'> +7.3076396e+01 </wgt>
<wgt id='1758'> +7.3324617e+01 </wgt>
<wgt id='1759'> +7.3546637e+01 </wgt>
<wgt id='1760'> +7.2792928e+01 </wgt>
<wgt id='1761'> +7.2615448e+01 </wgt>
<wgt id='1762'> +7.3405155e+01 </wgt>
<wgt id='1763'> +7.3204107e+01 </wgt>
<wgt id='1764'> +7.3329356e+01 </wgt>
<wgt id='1765'> +7.3646965e+01 </wgt>
<wgt id='1766'> +7.2878286e+01 </wgt>
<wgt id='1767'> +7.3211261e+01 </wgt>
<wgt id='1768'> +7.3239058e+01 </wgt>
<wgt id='1769'> +7.3096290e+01 </wgt>
<wgt id='1770'> +7.3218296e+01 </wgt>
<wgt id='1771'> +7.3137122e+01 </wgt>
<wgt id='1772'> +7.3477856e+01 </wgt>
<wgt id='1773'> +7.2975802e+01 </wgt>
<wgt id='1774'> +7.2925998e+01 </wgt>
<wgt id='1775'> +7.3502547e+01 </wgt>
<wgt id='1776'> +7.4606072e+01 </wgt>
<wgt id='1777'> +7.1928289e+01 </wgt>
<wgt id='1778'> +7.3042228e+01 </wgt>
<wgt id='1779'> +7.1983575e+01 </wgt>
<wgt id='1780'> +7.2471053e+01 </wgt>
<wgt id='1781'> +7.4001769e+01 </wgt>
<wgt id='1782'> +7.3914499e+01 </wgt>
<wgt id='1783'> +7.4071119e+01 </wgt>
<wgt id='1784'> +7.4111387e+01 </wgt>
<wgt id='1785'> +7.3874634e+01 </wgt>
<wgt id='1786'> +7.4207110e+01 </wgt>
<wgt id='1787'> +7.3779290e+01 </wgt>
<wgt id='1788'> +7.4475395e+01 </wgt>
<wgt id='1789'> +7.3521410e+01 </wgt>
<wgt id='1790'> +7.3857277e+01 </wgt>
<wgt id='1791'> +7.4133988e+01 </wgt>
<wgt id='1792'> +7.4291224e+01 </wgt>
<wgt id='1793'> +7.3697439e+01 </wgt>
<wgt id='1794'> +7.3765953e+01 </wgt>
<wgt id='1795'> +7.4218619e+01 </wgt>
<wgt id='1796'> +7.3890594e+01 </wgt>
<wgt id='1797'> +7.4018714e+01 </wgt>
<wgt id='1798'> +7.3988518e+01 </wgt>
<wgt id='1799'> +7.3983947e+01 </wgt>
<wgt id='1800'> +7.3872983e+01 </wgt>
<wgt id='1801'> +7.4113204e+01 </wgt>
<wgt id='1802'> +7.3475980e+01 </wgt>
<wgt id='1803'> +7.4394405e+01 </wgt>
<wgt id='1804'> +7.3806795e+01 </wgt>
<wgt id='1805'> +7.4159300e+01 </wgt>
<wgt id='1806'> +7.3322376e+01 </wgt>
<wgt id='1807'> +7.4426746e+01 </wgt>
<wgt id='1808'> +7.3820513e+01 </wgt>
<wgt id='1809'> +7.4278220e+01 </wgt>
<wgt id='1810'> +7.3961482e+01 </wgt>
<wgt id='1811'> +7.4010761e+01 </wgt>
<wgt id='1812'> +7.3654204e+01 </wgt>
<wgt id='1813'> +7.3960682e+01 </wgt>
<wgt id='1814'> +7.3910024e+01 </wgt>
<wgt id='1815'> +7.3256370e+01 </wgt>
<wgt id='1816'> +7.3807219e+01 </wgt>
<wgt id='1817'> +7.3646288e+01 </wgt>
<wgt id='1818'> +7.4489993e+01 </wgt>
<wgt id='1819'> +7.5142793e+01 </wgt>
<wgt id='1820'> +7.1959108e+01 </wgt>
<wgt id='1821'> +7.3639769e+01 </wgt>
<wgt id='1822'> +7.3447900e+01 </wgt>
<wgt id='1823'> +7.3751267e+01 </wgt>
<wgt id='1824'> +7.2686690e+01 </wgt>
<wgt id='1825'> +7.2679134e+01 </wgt>
<wgt id='1826'> +7.2671395e+01 </wgt>
<wgt id='1827'> +7.2663827e+01 </wgt>
<wgt id='1828'> +7.2656264e+01 </wgt>
<wgt id='1829'> +7.2648500e+01 </wgt>
<wgt id='1830'> +7.2640780e+01 </wgt>
<wgt id='1831'> +7.2633043e+01 </wgt>
<wgt id='1832'> +7.2625625e+01 </wgt>
<wgt id='1833'> +7.2617861e+01 </wgt>
<wgt id='1834'> +7.2610134e+01 </wgt>
<wgt id='1835'> +7.2602386e+01 </wgt>
<wgt id='1836'> +7.2594849e+01 </wgt>
<wgt id='1837'> +7.2587249e+01 </wgt>
<wgt id='1838'> +7.2579526e+01 </wgt>
<wgt id='1839'> +7.2571969e+01 </wgt>
<wgt id='1840'> +7.2564240e+01 </wgt>
<wgt id='1841'> +7.2556469e+01 </wgt>
<wgt id='1842'> +7.2548895e+01 </wgt>
<wgt id='1843'> +7.2541339e+01 </wgt>
<wgt id='1844'> +7.2533622e+01 </wgt>
<wgt id='1845'> +7.2525869e+01 </wgt>
<wgt id='1846'> +7.2518123e+01 </wgt>
<wgt id='1847'> +7.2510712e+01 </wgt>
<wgt id='1848'> +7.2503002e+01 </wgt>
<wgt id='1849'> +7.2495240e+01 </wgt>
<wgt id='1850'> +7.2487682e+01 </wgt>
<wgt id='1851'> +7.2479971e+01 </wgt>
<wgt id='1852'> +7.2472382e+01 </wgt>
<wgt id='1853'> +7.2464644e+01 </wgt>
<wgt id='1854'> +7.2457075e+01 </wgt>
<wgt id='1855'> +7.4929038e+01 </wgt>
<wgt id='1856'> +7.4558884e+01 </wgt>
<wgt id='1857'> +7.5210231e+01 </wgt>
<wgt id='1858'> +7.4328647e+01 </wgt>
<wgt id='1859'> +7.4740312e+01 </wgt>
<wgt id='1860'> +7.5239535e+01 </wgt>
<wgt id='1861'> +7.5066714e+01 </wgt>
<wgt id='1862'> +7.5186934e+01 </wgt>
<wgt id='1863'> +7.5065831e+01 </wgt>
<wgt id='1864'> +7.4912204e+01 </wgt>
<wgt id='1865'> +7.4503976e+01 </wgt>
<wgt id='1866'> +7.6263564e+01 </wgt>
<wgt id='1867'> +7.4575045e+01 </wgt>
<wgt id='1868'> +7.3919480e+01 </wgt>
<wgt id='1869'> +7.4289026e+01 </wgt>
<wgt id='1870'> +7.4354878e+01 </wgt>
<wgt id='1871'> +7.6248404e+01 </wgt>
<wgt id='1872'> +7.4432522e+01 </wgt>
<wgt id='1873'> +7.4649337e+01 </wgt>
<wgt id='1874'> +7.5062048e+01 </wgt>
<wgt id='1875'> +7.5752798e+01 </wgt>
<wgt id='1876'> +7.4701287e+01 </wgt>
<wgt id='1877'> +7.5062665e+01 </wgt>
<wgt id='1878'> +7.4699022e+01 </wgt>
<wgt id='1879'> +7.4619672e+01 </wgt>
<wgt id='1880'> +7.4729052e+01 </wgt>
<wgt id='1881'> +7.4653261e+01 </wgt>
<wgt id='1882'> +7.5100826e+01 </wgt>
<wgt id='1883'> +7.5128575e+01 </wgt>
<wgt id='1884'> +7.4925440e+01 </wgt>
<wgt id='1885'> +7.4868232e+01 </wgt>
<wgt id='1886'> +7.5169771e+01 </wgt>
<wgt id='1887'> +7.4911006e+01 </wgt>
<wgt id='1888'> +7.4948256e+01 </wgt>
<wgt id='1889'> +7.4910016e+01 </wgt>
<wgt id='1890'> +7.4998159e+01 </wgt>
<wgt id='1891'> +7.4946699e+01 </wgt>
<wgt id='1892'> +7.5017532e+01 </wgt>
<wgt id='1893'> +7.4915956e+01 </wgt>
<wgt id='1894'> +7.4833114e+01 </wgt>
<wgt id='1895'> +7.4845227e+01 </wgt>
<wgt id='1896'> +7.4821031e+01 </wgt>
<wgt id='1897'> +7.4858637e+01 </wgt>
<wgt id='1898'> +7.5006004e+01 </wgt>
<wgt id='1899'> +7.4921312e+01 </wgt>
<wgt id='1900'> +7.4869106e+01 </wgt>
<wgt id='1901'> +7.4905271e+01 </wgt>
<wgt id='1902'> +7.4843772e+01 </wgt>
<wgt id='1903'> +7.4996071e+01 </wgt>
<wgt id='1904'> +7.4858731e+01 </wgt>
<wgt id='1905'> +7.4965326e+01 </wgt>
<wgt id='1906'> +7.4943901e+01 </wgt>
<wgt id='1907'> +7.4942037e+01 </wgt>
<wgt id='1908'> +7.4963823e+01 </wgt>
<wgt id='1909'> +7.4939980e+01 </wgt>
<wgt id='1910'> +7.4943619e+01 </wgt>
<wgt id='1911'> +7.4898638e+01 </wgt>
<wgt id='1912'> +7.4920311e+01 </wgt>
<wgt id='1913'> +7.4969872e+01 </wgt>
<wgt id='1914'> +7.4950252e+01 </wgt>
<wgt id='1915'> +7.4962961e+01 </wgt>
<wgt id='1916'> +7.4953446e+01 </wgt>
<wgt id='1917'> +7.4920954e+01 </wgt>
<wgt id='1918'> +7.4921937e+01 </wgt>
<wgt id='1919'> +7.4940623e+01 </wgt>
<wgt id='1920'> +7.4916595e+01 </wgt>
<wgt id='1921'> +7.4926147e+01 </wgt>
<wgt id='1922'> +7.4907698e+01 </wgt>
<wgt id='1923'> +7.4948975e+01 </wgt>
<wgt id='1924'> +7.4924406e+01 </wgt>
<wgt id='1925'> +7.4907317e+01 </wgt>
<wgt id='1926'> +7.4995485e+01 </wgt>
<wgt id='1927'> +7.4949909e+01 </wgt>
<wgt id='1928'> +7.4885007e+01 </wgt>
<wgt id='1929'> +7.4937595e+01 </wgt>
<wgt id='1930'> +7.4931091e+01 </wgt>
<wgt id='1931'> +7.4985238e+01 </wgt>
<wgt id='1932'> +7.4949975e+01 </wgt>
<wgt id='1933'> +7.4981559e+01 </wgt>
<wgt id='1934'> +7.4921713e+01 </wgt>
<wgt id='1935'> +7.4912573e+01 </wgt>
<wgt id='1936'> +7.4974913e+01 </wgt>
<wgt id='1937'> +7.4960435e+01 </wgt>
<wgt id='1938'> +7.4906152e+01 </wgt>
<wgt id='1939'> +7.4890439e+01 </wgt>
<wgt id='1940'> +7.4929896e+01 </wgt>
<wgt id='1941'> +7.4991245e+01 </wgt>
<wgt id='1942'> +7.4876196e+01 </wgt>
<wgt id='1943'> +7.4888872e+01 </wgt>
<wgt id='1944'> +7.4887156e+01 </wgt>
<wgt id='1945'> +7.4927354e+01 </wgt>
<wgt id='1946'> +7.4893409e+01 </wgt>
<wgt id='1947'> +7.4899535e+01 </wgt>
<wgt id='1948'> +7.4929139e+01 </wgt>
<wgt id='1949'> +7.4885418e+01 </wgt>
<wgt id='1950'> +7.4941146e+01 </wgt>
<wgt id='1951'> +7.4929196e+01 </wgt>
<wgt id='1952'> +7.4940824e+01 </wgt>
<wgt id='1953'> +7.4921440e+01 </wgt>
<wgt id='1954'> +7.4926213e+01 </wgt>
<wgt id='1955'> +7.4936738e+01 </wgt>
<wgt id='1956'> +7.4928397e+01 </wgt>
<wgt id='1957'> +7.4932401e+01 </wgt>
<wgt id='1958'> +7.4929681e+01 </wgt>
<wgt id='1959'> +7.4929805e+01 </wgt>
<wgt id='1960'> +7.4930929e+01 </wgt>
<wgt id='1961'> +7.4929314e+01 </wgt>
<wgt id='1962'> +7.4933090e+01 </wgt>
</rwgt>
</event>
<event npLO=" -1 " npNLO=" 1 ">
 7      1 +1.5146096e+02 3.59516370e+01 7.54677110e-03 1.11611040e-01
       21 -1    0    0  501  502 +0.0000000000e+00 +0.0000000000e+00 +7.5106923000e+01 7.5106923000e+01 0.0000000000e+00 0.0000e+00 9.0000e+00
        3 -1    0    0  502    0 +0.0000000000e+00 +0.0000000000e+00 -5.8714503000e+01 5.8714503000e+01 0.0000000000e+00 0.0000e+00 9.0000e+00
       23  2    1    2    0    0 +7.5222827000e+00 -3.7244049000e+01 +2.6640757000e+01 9.4467489000e+01 8.2284097000e+01 0.0000e+00 0.0000e+00
       11  1    3    3    0    0 -3.2407244000e+01 +3.4067258000e+00 +3.3129328000e+00 3.2753790000e+01 0.0000000000e+00 0.0000e+00 9.0000e+00
      -11  1    3    3    0    0 +2.4425662000e+01 -2.3645275000e+01 +1.5919138000e+01 3.7538393000e+01 0.0000000000e+00 0.0000e+00 9.0000e+00
       22  1    3    3    0    0 +1.5503864000e+01 -1.7005500000e+01 +7.4086867000e+00 2.4175307000e+01 0.0000000000e+00 0.0000e+00 9.0000e+00
        3  1    1    2  501    0 -7.5222827000e+00 +3.7244049000e+01 -1.0248337000e+01 3.9353936000e+01 0.0000000000e+00 0.0000e+00 9.0000e+00
#aMCatNLO 1  0  0  1  6 0.12467281E+02 0.00000000E+00 -9  7  0 0.00000000E+00 0.00000000E+00 0.00000000E+00 0.00000000E+00 0.00000000E+00
<rwgt>
<wgt id='1001'> +1.5146000e+02 </wgt>
<wgt id='1002'> +1.5146000e+02 </wgt>
<wgt id='1003'> +1.3858000e+02 </wgt>
<wgt id='1004'> +1.4470000e+02 </wgt>
<wgt id='1005'> +1.3817000e+02 </wgt>
<wgt id='1006'> +1.4541000e+02 </wgt>
<wgt id='1007'> +1.2748000e+02 </wgt>
<wgt id='1008'> +1.5552000e+02 </wgt>
<wgt id='1009'> +1.4809000e+02 </wgt>
<wgt id='1010'> +1.4867000e+02 </wgt>
<wgt id='1011'> +1.5199000e+02 </wgt>
<wgt id='1012'> +1.7764000e+02 </wgt>
<wgt id='1013'> +1.6473000e+02 </wgt>
<wgt id='1014'> +1.4807000e+02 </wgt>
<wgt id='1015'> +1.4471000e+02 </wgt>
<wgt id='1016'> +1.5345000e+02 </wgt>
<wgt id='1017'> +1.5518000e+02 </wgt>
<wgt id='1018'> +1.5625000e+02 </wgt>
<wgt id='1019'> +1.5859000e+02 </wgt>
<wgt id='1020'> +1.5455000e+02 </wgt>
<wgt id='1021'> +1.4878000e+02 </wgt>
<wgt id='1022'> +1.4038000e+02 </wgt>
<wgt id='1023'> +1.4123000e+02 </wgt>
<wgt id='1024'> +1.5395000e+02 </wgt>
<wgt id='1025'> +1.5776000e+02 </wgt>
<wgt id='1026'> +1.3882000e+02 </wgt>
<wgt id='1027'> +1.4479000e+02 </wgt>
<wgt id='1028'> +1.6092000e+02 </wgt>
<wgt id='1029'> +1.4176000e+02 </wgt>
<wgt id='1030'> +1.5439000e+02 </wgt>
<wgt id='1031'> +1.3863000e+02 </wgt>
<wgt id='1032'> +1.4328000e+02 </wgt>
<wgt id='1033'> +1.3775000e+02 </wgt>
<wgt id='1034'> +1.7352000e+02 </wgt>
<wgt id='1035'> +1.5893000e+02 </wgt>
<wgt id='1036'> +1.5739000e+02 </wgt>
<wgt id='1037'> +1.4260000e+02 </wgt>
<wgt id='1038'> +1.4729000e+02 </wgt>
<wgt id='1039'> +1.4886000e+02 </wgt>
<wgt id='1040'> +1.6311000e+02 </wgt>
<wgt id='1041'> +1.4275000e+02 </wgt>
<wgt id='1042'> +1.4674000e+02 </wgt>
<wgt id='1043'> +1.5210000e+02 </wgt>
<wgt id='1044'> +1.5001000e+02 </wgt>
<wgt id='1045'> +1.4945000e+02 </wgt>
<wgt id='1046'> +1.5540000e+02 </wgt>
<wgt id='1047'> +1.5967000e+02 </wgt>
<wgt id='1048'> +1.4729000e+02 </wgt>
<wgt id='1049'> +1.5898000e+02 </wgt>
<wgt id='1050'> +1.5109000e+02 </wgt>
<wgt id='1051'> +1.4293000e+02 </wgt>
<wgt id='1052'> +1.4047000e+02 </wgt>
<wgt id='1053'> +1.5171000e+02 </wgt>
<wgt id='1054'> +1.5135000e+02 </wgt>
<wgt id='1055'> +1.7877000e+02 </wgt>
<wgt id='1056'> +1.5363000e+02 </wgt>
<wgt id='1057'> +1.5406000e+02 </wgt>
<wgt id='1058'> +1.4945000e+02 </wgt>
<wgt id='1059'> +1.4079000e+02 </wgt>
<wgt id='1060'> +1.4532000e+02 </wgt>
<wgt id='1061'> +1.4721000e+02 </wgt>
<wgt id='1062'> +1.5158000e+02 </wgt>
<wgt id='1063'> +1.4706000e+02 </wgt>
<wgt id='1064'> +1.4473000e+02 </wgt>
<wgt id='1065'> +1.5456000e+02 </wgt>
<wgt id='1066'> +1.6393000e+02 </wgt>
<wgt id='1067'> +1.5550000e+02 </wgt>
<wgt id='1068'> +1.4692000e+02 </wgt>
<wgt id='1069'> +1.8259000e+02 </wgt>
<wgt id='1070'> +1.4918000e+02 </wgt>
<wgt id='1071'> +1.5701000e+02 </wgt>
<wgt id='1072'> +1.4928000e+02 </wgt>
<wgt id='1073'> +1.6100000e+02 </wgt>
<wgt id='1074'> +1.7301000e+02 </wgt>
<wgt id='1075'> +1.7097000e+02 </wgt>
<wgt id='1076'> +1.5305000e+02 </wgt>
<wgt id='1077'> +1.4327000e+02 </wgt>
<wgt id='1078'> +1.6539000e+02 </wgt>
<wgt id='1079'> +1.5544000e+02 </wgt>
<wgt id='1080'> +1.5472000e+02 </wgt>
<wgt id='1081'> +1.5902000e+02 </wgt>
<wgt id='1082'> +1.4603000e+02 </wgt>
<wgt id='1083'> +1.5306000e+02 </wgt>
<wgt id='1084'> +1.4210000e+02 </wgt>
<wgt id='1085'> +1.5285000e+02 </wgt>
<wgt id='1086'> +1.4455000e+02 </wgt>
<wgt id='1087'> +1.4409000e+02 </wgt>
<wgt id='1088'> +1.5441000e+02 </wgt>
<wgt id='1089'> +1.5466000e+02 </wgt>
<wgt id='1090'> +1.4442000e+02 </wgt>
<wgt id='1091'> +1.5354000e+02 </wgt>
<wgt id='1092'> +1.4577000e+02 </wgt>
<wgt id='1093'> +1.4194000e+02 </wgt>
<wgt id='1094'> +1.5509000e+02 </wgt>
<wgt id='1095'> +1.4884000e+02 </wgt>
<wgt id='1096'> +1.5961000e+02 </wgt>
<wgt id='1097'> +1.4278000e+02 </wgt>
<wgt id='1098'> +1.6124000e+02 </wgt>
<wgt id='1099'> +1.5137000e+02 </wgt>
<wgt id='1100'> +1.5483000e+02 </wgt>
<wgt id='1101'> +1.4584000e+02 </wgt>
<wgt id='1102'> +1.3465000e+02 </wgt>
<wgt id='1103'> +1.4725000e+02 </wgt>
<wgt id='1104'> +1.5175000e+02 </wgt>
<wgt id='1105'> +1.5146096e+02 </wgt>
<wgt id='1106'> +6.6874942e+01 </wgt>
<wgt id='1107'> +8.7127846e+01 </wgt>
<wgt id='1108'> +9.4230333e+01 </wgt>
<wgt id='1109'> +8.2510374e+01 </wgt>
<wgt id='1110'> +1.0945699e+02 </wgt>
<wgt id='1111'> +5.8573897e+01 </wgt>
<wgt id='1112'> +5.2288055e+01 </wgt>
<wgt id='1113'> +6.6549261e+01 </wgt>
<wgt id='1114'> +8.4626392e+01 </wgt>
<wgt id='1115'> +6.8577109e+01 </wgt>
<wgt id='1116'> +8.2481595e+01 </wgt>
<wgt id='1117'> +8.3086669e+01 </wgt>
<wgt id='1118'> +8.6047999e+01 </wgt>
<wgt id='1119'> +8.7657745e+01 </wgt>
<wgt id='1120'> +7.6162358e+01 </wgt>
<wgt id='1121'> +8.1021619e+01 </wgt>
<wgt id='1122'> +8.9626248e+01 </wgt>
<wgt id='1123'> +8.5644043e+01 </wgt>
<wgt id='1124'> +8.3711846e+01 </wgt>
<wgt id='1125'> +8.4292578e+01 </wgt>
<wgt id='1126'> +8.7853763e+01 </wgt>
<wgt id='1127'> +8.7293426e+01 </wgt>
<wgt id='1128'> +8.6088112e+01 </wgt>
<wgt id='1129'> +8.1326963e+01 </wgt>
<wgt id='1130'> +8.5717159e+01 </wgt>
<wgt id='1131'> +7.8524475e+01 </wgt>
<wgt id='1132'> +8.8881469e+01 </wgt>
<wgt id='1133'> +8.7757137e+01 </wgt>
<wgt id='1134'> +9.2879440e+01 </wgt>
<wgt id='1135'> +8.3676383e+01 </wgt>
<wgt id='1136'> +8.4656172e+01 </wgt>
<wgt id='1137'> +8.1572142e+01 </wgt>
<wgt id='1138'> +8.9773060e+01 </wgt>
<wgt id='1139'> +8.9291731e+01 </wgt>
<wgt id='1140'> +8.4241544e+01 </wgt>
<wgt id='1141'> +8.1043530e+01 </wgt>
<wgt id='1142'> +8.5179325e+01 </wgt>
<wgt id='1143'> +8.6527940e+01 </wgt>
<wgt id='1144'> +7.8216895e+01 </wgt>
<wgt id='1145'> +7.8363195e+01 </wgt>
<wgt id='1146'> +8.3009774e+01 </wgt>
<wgt id='1147'> +8.2427636e+01 </wgt>
<wgt id='1148'> +9.0179218e+01 </wgt>
<wgt id='1149'> +8.5159951e+01 </wgt>
<wgt id='1150'> +8.5277568e+01 </wgt>
<wgt id='1151'> +8.7550955e+01 </wgt>
<wgt id='1152'> +8.7304768e+01 </wgt>
<wgt id='1153'> +8.1373454e+01 </wgt>
<wgt id='1154'> +8.2606272e+01 </wgt>
<wgt id='1155'> +8.7284761e+01 </wgt>
<wgt id='1156'> +8.3048205e+01 </wgt>
<wgt id='1157'> +8.2172555e+01 </wgt>
<wgt id='1158'> +7.8783262e+01 </wgt>
<wgt id='1159'> +8.3900387e+01 </wgt>
<wgt id='1160'> +8.4771849e+01 </wgt>
<wgt id='1161'> +8.6198435e+01 </wgt>
<wgt id='1162'> +8.7795303e+01 </wgt>
<wgt id='1163'> +8.2488245e+01 </wgt>
<wgt id='1164'> +8.5014550e+01 </wgt>
<wgt id='1165'> +8.5295842e+01 </wgt>
<wgt id='1166'> +8.3317328e+01 </wgt>
<wgt id='1167'> +8.7746000e+01 </wgt>
<wgt id='1168'> +7.9216844e+01 </wgt>
<wgt id='1169'> +8.9651942e+01 </wgt>
<wgt id='1170'> +8.4485267e+01 </wgt>
<wgt id='1171'> +8.3905144e+01 </wgt>
<wgt id='1172'> +8.6478903e+01 </wgt>
<wgt id='1173'> +8.3985502e+01 </wgt>
<wgt id='1174'> +8.0419347e+01 </wgt>
<wgt id='1175'> +7.8125233e+01 </wgt>
<wgt id='1176'> +8.5587227e+01 </wgt>
<wgt id='1177'> +8.7364501e+01 </wgt>
<wgt id='1178'> +9.0996681e+01 </wgt>
<wgt id='1179'> +8.5436238e+01 </wgt>
<wgt id='1180'> +8.5333039e+01 </wgt>
<wgt id='1181'> +8.2462192e+01 </wgt>
<wgt id='1182'> +7.9377161e+01 </wgt>
<wgt id='1183'> +8.3501125e+01 </wgt>
<wgt id='1184'> +8.2768938e+01 </wgt>
<wgt id='1185'> +8.4605812e+01 </wgt>
<wgt id='1186'> +8.2464656e+01 </wgt>
<wgt id='1187'> +8.8241017e+01 </wgt>
<wgt id='1188'> +8.9375694e+01 </wgt>
<wgt id='1189'> +8.9462400e+01 </wgt>
<wgt id='1190'> +8.5429396e+01 </wgt>
<wgt id='1191'> +8.5684837e+01 </wgt>
<wgt id='1192'> +8.5109651e+01 </wgt>
<wgt id='1193'> +8.7408001e+01 </wgt>
<wgt id='1194'> +8.0675221e+01 </wgt>
<wgt id='1195'> +8.5714198e+01 </wgt>
<wgt id='1196'> +8.5717159e+01 </wgt>
<wgt id='1197'> +8.2417649e+01 </wgt>
<wgt id='1198'> +8.8854723e+01 </wgt>
<wgt id='1199'> +8.3091725e+01 </wgt>
<wgt id='1200'> +7.8712533e+01 </wgt>
<wgt id='1201'> +9.1681878e+01 </wgt>
<wgt id='1202'> +7.6313584e+01 </wgt>
<wgt id='1203'> +9.2726588e+01 </wgt>
<wgt id='1204'> +8.5316895e+01 </wgt>
<wgt id='1205'> +8.9347449e+01 </wgt>
<wgt id='1206'> +9.2353555e+01 </wgt>
<wgt id='1207'> +8.8548034e+01 </wgt>
<wgt id='1208'> +8.0183033e+01 </wgt>
<wgt id='1209'> +8.5019902e+01 </wgt>
<wgt id='1210'> +8.5152185e+01 </wgt>
<wgt id='1211'> +7.9855962e+01 </wgt>
<wgt id='1212'> +8.0533080e+01 </wgt>
<wgt id='1213'> +8.8202605e+01 </wgt>
<wgt id='1214'> +8.5854491e+01 </wgt>
<wgt id='1215'> +7.7255312e+01 </wgt>
<wgt id='1216'> +8.2452121e+01 </wgt>
<wgt id='1217'> +8.2877914e+01 </wgt>
<wgt id='1218'> +8.2111888e+01 </wgt>
<wgt id='1219'> +8.2458502e+01 </wgt>
<wgt id='1220'> +8.1984312e+01 </wgt>
<wgt id='1221'> +8.2166733e+01 </wgt>
<wgt id='1222'> +8.3012168e+01 </wgt>
<wgt id='1223'> +8.2194384e+01 </wgt>
<wgt id='1224'> +8.2645062e+01 </wgt>
<wgt id='1225'> +8.2235109e+01 </wgt>
<wgt id='1226'> +8.3933560e+01 </wgt>
<wgt id='1227'> +8.2728638e+01 </wgt>
<wgt id='1228'> +8.1878076e+01 </wgt>
<wgt id='1229'> +8.2158724e+01 </wgt>
<wgt id='1230'> +8.1470053e+01 </wgt>
<wgt id='1231'> +8.3966113e+01 </wgt>
<wgt id='1232'> +8.1099050e+01 </wgt>
<wgt id='1233'> +8.2772781e+01 </wgt>
<wgt id='1234'> +8.1764291e+01 </wgt>
<wgt id='1235'> +8.3049201e+01 </wgt>
<wgt id='1236'> +8.3624107e+01 </wgt>
<wgt id='1237'> +8.1321677e+01 </wgt>
<wgt id='1238'> +8.2248058e+01 </wgt>
<wgt id='1239'> +8.2540565e+01 </wgt>
<wgt id='1240'> +8.2423158e+01 </wgt>
<wgt id='1241'> +8.2985981e+01 </wgt>
<wgt id='1242'> +8.2409663e+01 </wgt>
<wgt id='1243'> +8.2838564e+01 </wgt>
<wgt id='1244'> +8.2469549e+01 </wgt>
<wgt id='1245'> +8.2836032e+01 </wgt>
<wgt id='1246'> +8.2332559e+01 </wgt>
<wgt id='1247'> +8.2150289e+01 </wgt>
<wgt id='1248'> +8.2634525e+01 </wgt>
<wgt id='1249'> +8.2088367e+01 </wgt>
<wgt id='1250'> +8.2850176e+01 </wgt>
<wgt id='1251'> +8.2929402e+01 </wgt>
<wgt id='1252'> +8.2775758e+01 </wgt>
<wgt id='1253'> +8.2981099e+01 </wgt>
<wgt id='1254'> +8.2721983e+01 </wgt>
<wgt id='1255'> +8.2351691e+01 </wgt>
<wgt id='1256'> +8.2565969e+01 </wgt>
<wgt id='1257'> +8.2052547e+01 </wgt>
<wgt id='1258'> +8.2502912e+01 </wgt>
<wgt id='1259'> +8.2732116e+01 </wgt>
<wgt id='1260'> +8.2482358e+01 </wgt>
<wgt id='1261'> +8.2677717e+01 </wgt>
<wgt id='1262'> +8.2470932e+01 </wgt>
<wgt id='1263'> +8.2668647e+01 </wgt>
<wgt id='1264'> +8.2678176e+01 </wgt>
<wgt id='1265'> +8.2485820e+01 </wgt>
<wgt id='1266'> +8.2562745e+01 </wgt>
<wgt id='1267'> +8.2487437e+01 </wgt>
<wgt id='1268'> +8.2236293e+01 </wgt>
<wgt id='1269'> +8.2375246e+01 </wgt>
<wgt id='1270'> +8.2619294e+01 </wgt>
<wgt id='1271'> +8.2377242e+01 </wgt>
<wgt id='1272'> +8.2534486e+01 </wgt>
<wgt id='1273'> +8.2429293e+01 </wgt>
<wgt id='1274'> +8.2464917e+01 </wgt>
<wgt id='1275'> +8.2461199e+01 </wgt>
<wgt id='1276'> +8.2400298e+01 </wgt>
<wgt id='1277'> +8.2488191e+01 </wgt>
<wgt id='1278'> +8.2545713e+01 </wgt>
<wgt id='1279'> +8.2494035e+01 </wgt>
<wgt id='1280'> +8.2379017e+01 </wgt>
<wgt id='1281'> +8.2374140e+01 </wgt>
<wgt id='1282'> +8.2488323e+01 </wgt>
<wgt id='1283'> +8.2357710e+01 </wgt>
<wgt id='1284'> +8.2343935e+01 </wgt>
<wgt id='1285'> +8.2405109e+01 </wgt>
<wgt id='1286'> +8.2403211e+01 </wgt>
<wgt id='1287'> +8.2621355e+01 </wgt>
<wgt id='1288'> +8.2458867e+01 </wgt>
<wgt id='1289'> +8.2374554e+01 </wgt>
<wgt id='1290'> +8.2482563e+01 </wgt>
<wgt id='1291'> +8.2464867e+01 </wgt>
<wgt id='1292'> +8.2540312e+01 </wgt>
<wgt id='1293'> +8.2416691e+01 </wgt>
<wgt id='1294'> +8.2520788e+01 </wgt>
<wgt id='1295'> +8.2445621e+01 </wgt>
<wgt id='1296'> +8.2461539e+01 </wgt>
<wgt id='1297'> +8.2457978e+01 </wgt>
<wgt id='1298'> +8.2497859e+01 </wgt>
<wgt id='1299'> +8.2455694e+01 </wgt>
<wgt id='1300'> +8.2449561e+01 </wgt>
<wgt id='1301'> +8.2427264e+01 </wgt>
<wgt id='1302'> +8.2456805e+01 </wgt>
<wgt id='1303'> +8.2460019e+01 </wgt>
<wgt id='1304'> +8.2430444e+01 </wgt>
<wgt id='1305'> +8.2455382e+01 </wgt>
<wgt id='1306'> +8.2426392e+01 </wgt>
<wgt id='1307'> +8.2442518e+01 </wgt>
<wgt id='1308'> +8.2420154e+01 </wgt>
<wgt id='1309'> +8.2435322e+01 </wgt>
<wgt id='1310'> +8.2430224e+01 </wgt>
<wgt id='1311'> +8.2444447e+01 </wgt>
<wgt id='1312'> +8.2453647e+01 </wgt>
<wgt id='1313'> +8.2478894e+01 </wgt>
<wgt id='1314'> +8.2444153e+01 </wgt>
<wgt id='1315'> +8.2383913e+01 </wgt>
<wgt id='1316'> +8.2516674e+01 </wgt>
<wgt id='1317'> +8.0324175e+01 </wgt>
<wgt id='1318'> +8.4330708e+01 </wgt>
<wgt id='1319'> +4.0274685e+01 </wgt>
<wgt id='1320'> +7.8852470e+01 </wgt>
<wgt id='1321'> +7.9072218e+01 </wgt>
<wgt id='1322'> +7.9135827e+01 </wgt>
<wgt id='1323'> +8.1757688e+01 </wgt>
<wgt id='1324'> +7.7390906e+01 </wgt>
<wgt id='1325'> +7.9696797e+01 </wgt>
<wgt id='1326'> +7.8326736e+01 </wgt>
<wgt id='1327'> +8.0404863e+01 </wgt>
<wgt id='1328'> +7.7966254e+01 </wgt>
<wgt id='1329'> +7.7014882e+01 </wgt>
<wgt id='1330'> +8.0250289e+01 </wgt>
<wgt id='1331'> +7.8679300e+01 </wgt>
<wgt id='1332'> +7.9187412e+01 </wgt>
<wgt id='1333'> +7.6984339e+01 </wgt>
<wgt id='1334'> +7.9531548e+01 </wgt>
<wgt id='1335'> +7.2417319e+01 </wgt>
<wgt id='1336'> +8.5833409e+01 </wgt>
<wgt id='1337'> +7.7641303e+01 </wgt>
<wgt id='1338'> +8.0243992e+01 </wgt>
<wgt id='1339'> +7.9197316e+01 </wgt>
<wgt id='1340'> +7.8407132e+01 </wgt>
<wgt id='1341'> +7.8269586e+01 </wgt>
<wgt id='1342'> +7.9894299e+01 </wgt>
<wgt id='1343'> +7.8485794e+01 </wgt>
<wgt id='1344'> +7.9127758e+01 </wgt>
<wgt id='1345'> +7.7931644e+01 </wgt>
<wgt id='1346'> +7.9712461e+01 </wgt>
<wgt id='1347'> +7.8738418e+01 </wgt>
<wgt id='1348'> +7.8951665e+01 </wgt>
<wgt id='1349'> +7.8522953e+01 </wgt>
<wgt id='1350'> +7.8960791e+01 </wgt>
<wgt id='1351'> +7.8960720e+01 </wgt>
<wgt id='1352'> +7.8693083e+01 </wgt>
<wgt id='1353'> +7.8848054e+01 </wgt>
<wgt id='1354'> +7.8800190e+01 </wgt>
<wgt id='1355'> +8.0196817e+01 </wgt>
<wgt id='1356'> +7.7562963e+01 </wgt>
<wgt id='1357'> +7.9293062e+01 </wgt>
<wgt id='1358'> +7.7731757e+01 </wgt>
<wgt id='1359'> +7.8999851e+01 </wgt>
<wgt id='1360'> +7.7623277e+01 </wgt>
<wgt id='1361'> +7.9297325e+01 </wgt>
<wgt id='1362'> +7.8521504e+01 </wgt>
<wgt id='1363'> +7.9155503e+01 </wgt>
<wgt id='1364'> +7.8292425e+01 </wgt>
<wgt id='1365'> +7.6690471e+01 </wgt>
<wgt id='1366'> +7.9283809e+01 </wgt>
<wgt id='1367'> +7.7498951e+01 </wgt>
<wgt id='1368'> +7.9726727e+01 </wgt>
<wgt id='1369'> +7.9859202e+01 </wgt>
<wgt id='1370'> +7.5983356e+01 </wgt>
<wgt id='1371'> +7.8376180e+01 </wgt>
<wgt id='1372'> +7.8255757e+01 </wgt>
<wgt id='1373'> +7.6420710e+01 </wgt>
<wgt id='1374'> +7.9393710e+01 </wgt>
<wgt id='1375'> +8.2135297e+01 </wgt>
<wgt id='1376'> +7.2878928e+01 </wgt>
<wgt id='1377'> +7.6643442e+01 </wgt>
<wgt id='1378'> +8.0783993e+01 </wgt>
<wgt id='1379'> +7.9280276e+01 </wgt>
<wgt id='1380'> +7.7185300e+01 </wgt>
<wgt id='1381'> +8.0912603e+01 </wgt>
<wgt id='1382'> +6.5615982e+01 </wgt>
<wgt id='1383'> +8.0767857e+01 </wgt>
<wgt id='1384'> +8.1497171e+01 </wgt>
<wgt id='1385'> +9.3257061e+01 </wgt>
<wgt id='1386'> +9.3476779e+01 </wgt>
<wgt id='1387'> +9.3012372e+01 </wgt>
<wgt id='1388'> +9.2668512e+01 </wgt>
<wgt id='1389'> +9.4267215e+01 </wgt>
<wgt id='1390'> +9.3227284e+01 </wgt>
<wgt id='1391'> +9.3294208e+01 </wgt>
<wgt id='1392'> +9.3477624e+01 </wgt>
<wgt id='1393'> +9.3104260e+01 </wgt>
<wgt id='1394'> +9.2825371e+01 </wgt>
<wgt id='1395'> +9.3792062e+01 </wgt>
<wgt id='1396'> +9.2365562e+01 </wgt>
<wgt id='1397'> +9.3720002e+01 </wgt>
<wgt id='1398'> +9.3129853e+01 </wgt>
<wgt id='1399'> +9.3342203e+01 </wgt>
<wgt id='1400'> +9.3290530e+01 </wgt>
<wgt id='1401'> +9.3219033e+01 </wgt>
<wgt id='1402'> +9.2729943e+01 </wgt>
<wgt id='1403'> +9.3499650e+01 </wgt>
<wgt id='1404'> +9.4533018e+01 </wgt>
<wgt id='1405'> +9.2635554e+01 </wgt>
<wgt id='1406'> +9.4879410e+01 </wgt>
<wgt id='1407'> +9.0352720e+01 </wgt>
<wgt id='1408'> +9.5044905e+01 </wgt>
<wgt id='1409'> +8.9670107e+01 </wgt>
<wgt id='1410'> +9.3570418e+01 </wgt>
<wgt id='1411'> +9.2420219e+01 </wgt>
<wgt id='1412'> +9.2841265e+01 </wgt>
<wgt id='1413'> +9.3759458e+01 </wgt>
<wgt id='1414'> +9.3315021e+01 </wgt>
<wgt id='1415'> +9.3248441e+01 </wgt>
<wgt id='1416'> +9.3498234e+01 </wgt>
<wgt id='1417'> +9.3113162e+01 </wgt>
<wgt id='1418'> +9.3281662e+01 </wgt>
<wgt id='1419'> +9.3202352e+01 </wgt>
<wgt id='1420'> +9.3010262e+01 </wgt>
<wgt id='1421'> +9.3035372e+01 </wgt>
<wgt id='1422'> +9.2880193e+01 </wgt>
<wgt id='1423'> +9.3613540e+01 </wgt>
<wgt id='1424'> +9.3155455e+01 </wgt>
<wgt id='1425'> +9.3161440e+01 </wgt>
<wgt id='1426'> +9.1850636e+01 </wgt>
<wgt id='1427'> +9.2629062e+01 </wgt>
<wgt id='1428'> +9.2329103e+01 </wgt>
<wgt id='1429'> +9.4007614e+01 </wgt>
<wgt id='1430'> +9.2326078e+01 </wgt>
<wgt id='1431'> +9.1809560e+01 </wgt>
<wgt id='1432'> +9.2567712e+01 </wgt>
<wgt id='1433'> +9.1101425e+01 </wgt>
<wgt id='1434'> +9.2834969e+01 </wgt>
<wgt id='1435'> +9.3371131e+01 </wgt>
<wgt id='1436'> +7.7020070e+01 </wgt>
<wgt id='1437'> +7.7006669e+01 </wgt>
<wgt id='1438'> +7.7042611e+01 </wgt>
<wgt id='1439'> +7.7020311e+01 </wgt>
<wgt id='1440'> +7.7027565e+01 </wgt>
<wgt id='1441'> +7.6559742e+01 </wgt>
<wgt id='1442'> +7.6372069e+01 </wgt>
<wgt id='1443'> +7.6985688e+01 </wgt>
<wgt id='1444'> +7.6691062e+01 </wgt>
<wgt id='1445'> +7.6657648e+01 </wgt>
<wgt id='1446'> +7.7217747e+01 </wgt>
<wgt id='1447'> +7.6994068e+01 </wgt>
<wgt id='1448'> +7.7244556e+01 </wgt>
<wgt id='1449'> +7.6943011e+01 </wgt>
<wgt id='1450'> +7.7457171e+01 </wgt>
<wgt id='1451'> +7.7092949e+01 </wgt>
<wgt id='1452'> +7.6776568e+01 </wgt>
<wgt id='1453'> +7.7058448e+01 </wgt>
<wgt id='1454'> +7.7220184e+01 </wgt>
<wgt id='1455'> +7.6861983e+01 </wgt>
<wgt id='1456'> +7.7013628e+01 </wgt>
<wgt id='1457'> +7.6460020e+01 </wgt>
<wgt id='1458'> +7.7457822e+01 </wgt>
<wgt id='1459'> +7.6863325e+01 </wgt>
<wgt id='1460'> +7.7345500e+01 </wgt>
<wgt id='1461'> +7.7316304e+01 </wgt>
<wgt id='1462'> +7.7179975e+01 </wgt>
<wgt id='1463'> +7.6837869e+01 </wgt>
<wgt id='1464'> +7.7532876e+01 </wgt>
<wgt id='1465'> +8.4664442e+01 </wgt>
<wgt id='1466'> +7.8386406e+01 </wgt>
<wgt id='1467'> +7.8488094e+01 </wgt>
<wgt id='1468'> +7.9414493e+01 </wgt>
<wgt id='1469'> +7.5561772e+01 </wgt>
<wgt id='1470'> +7.9184636e+01 </wgt>
<wgt id='1471'> +7.7916517e+01 </wgt>
<wgt id='1472'> +7.9009645e+01 </wgt>
<wgt id='1473'> +7.8832318e+01 </wgt>
<wgt id='1474'> +8.0923797e+01 </wgt>
<wgt id='1475'> +7.7561867e+01 </wgt>
<wgt id='1476'> +7.7826386e+01 </wgt>
<wgt id='1477'> +8.0568808e+01 </wgt>
<wgt id='1478'> +7.7354293e+01 </wgt>
<wgt id='1479'> +7.7906523e+01 </wgt>
<wgt id='1480'> +7.9464195e+01 </wgt>
<wgt id='1481'> +7.7619268e+01 </wgt>
<wgt id='1482'> +8.0200693e+01 </wgt>
<wgt id='1483'> +7.6969482e+01 </wgt>
<wgt id='1484'> +7.7683480e+01 </wgt>
<wgt id='1485'> +7.8615593e+01 </wgt>
<wgt id='1486'> +7.8883042e+01 </wgt>
<wgt id='1487'> +7.8297505e+01 </wgt>
<wgt id='1488'> +7.8528113e+01 </wgt>
<wgt id='1489'> +7.8005210e+01 </wgt>
<wgt id='1490'> +7.8495379e+01 </wgt>
<wgt id='1491'> +7.8720162e+01 </wgt>
<wgt id='1492'> +7.8079142e+01 </wgt>
<wgt id='1493'> +7.8635225e+01 </wgt>
<wgt id='1494'> +7.8242403e+01 </wgt>
<wgt id='1495'> +7.8131156e+01 </wgt>
<wgt id='1496'> +7.8353039e+01 </wgt>
<wgt id='1497'> +7.8361872e+01 </wgt>
<wgt id='1498'> +7.8539214e+01 </wgt>
<wgt id='1499'> +7.8137654e+01 </wgt>
<wgt id='1500'> +7.8495318e+01 </wgt>
<wgt id='1501'> +7.8669569e+01 </wgt>
<wgt id='1502'> +7.8139133e+01 </wgt>
<wgt id='1503'> +7.8437721e+01 </wgt>
<wgt id='1504'> +7.8181227e+01 </wgt>
<wgt id='1505'> +7.8526348e+01 </wgt>
<wgt id='1506'> +7.8417849e+01 </wgt>
<wgt id='1507'> +7.8403441e+01 </wgt>
<wgt id='1508'> +7.8415512e+01 </wgt>
<wgt id='1509'> +7.8384022e+01 </wgt>
<wgt id='1510'> +7.8427352e+01 </wgt>
<wgt id='1511'> +7.8383079e+01 </wgt>
<wgt id='1512'> +7.8377317e+01 </wgt>
<wgt id='1513'> +7.8267647e+01 </wgt>
<wgt id='1514'> +7.8451963e+01 </wgt>
<wgt id='1515'> +7.8308567e+01 </wgt>
<wgt id='1516'> +7.8488158e+01 </wgt>
<wgt id='1517'> +7.8335970e+01 </wgt>
<wgt id='1518'> +7.8505143e+01 </wgt>
<wgt id='1519'> +7.8388067e+01 </wgt>
<wgt id='1520'> +7.8213091e+01 </wgt>
<wgt id='1521'> +7.8206893e+01 </wgt>
<wgt id='1522'> +7.8123059e+01 </wgt>
<wgt id='1523'> +7.8454217e+01 </wgt>
<wgt id='1524'> +7.8457364e+01 </wgt>
<wgt id='1525'> +7.8395115e+01 </wgt>
<wgt id='1526'> +7.8323105e+01 </wgt>
<wgt id='1527'> +7.8398557e+01 </wgt>
<wgt id='1528'> +7.8293573e+01 </wgt>
<wgt id='1529'> +7.8349891e+01 </wgt>
<wgt id='1530'> +7.8341796e+01 </wgt>
<wgt id='1531'> +7.8303630e+01 </wgt>
<wgt id='1532'> +7.8396526e+01 </wgt>
<wgt id='1533'> +7.8370267e+01 </wgt>
<wgt id='1534'> +7.8389050e+01 </wgt>
<wgt id='1535'> +7.8383295e+01 </wgt>
<wgt id='1536'> +7.8429490e+01 </wgt>
<wgt id='1537'> +7.8319895e+01 </wgt>
<wgt id='1538'> +7.8362990e+01 </wgt>
<wgt id='1539'> +7.8396278e+01 </wgt>
<wgt id='1540'> +7.8383937e+01 </wgt>
<wgt id='1541'> +7.8354466e+01 </wgt>
<wgt id='1542'> +7.8398681e+01 </wgt>
<wgt id='1543'> +7.8385029e+01 </wgt>
<wgt id='1544'> +7.8375945e+01 </wgt>
<wgt id='1545'> +7.8460365e+01 </wgt>
<wgt id='1546'> +7.8374049e+01 </wgt>
<wgt id='1547'> +7.8400357e+01 </wgt>
<wgt id='1548'> +7.8363827e+01 </wgt>
<wgt id='1549'> +7.8397314e+01 </wgt>
<wgt id='1550'> +7.8369847e+01 </wgt>
<wgt id='1551'> +7.8429023e+01 </wgt>
<wgt id='1552'> +7.8429572e+01 </wgt>
<wgt id='1553'> +7.8375261e+01 </wgt>
<wgt id='1554'> +7.8366669e+01 </wgt>
<wgt id='1555'> +7.8388208e+01 </wgt>
<wgt id='1556'> +7.8375445e+01 </wgt>
<wgt id='1557'> +7.8363846e+01 </wgt>
<wgt id='1558'> +7.8350775e+01 </wgt>
<wgt id='1559'> +7.8370260e+01 </wgt>
<wgt id='1560'> +7.8394705e+01 </wgt>
<wgt id='1561'> +7.8364069e+01 </wgt>
<wgt id='1562'> +7.8389663e+01 </wgt>
<wgt id='1563'> +7.8372583e+01 </wgt>
<wgt id='1564'> +7.8425242e+01 </wgt>
<wgt id='1565'> +7.8384708e+01 </wgt>
<wgt id='1566'> +7.8371847e+01 </wgt>
<wgt id='1567'> +7.6824307e+01 </wgt>
<wgt id='1568'> +8.0057327e+01 </wgt>
<wgt id='1569'> +7.9355152e+01 </wgt>
<wgt id='1570'> +8.0237005e+01 </wgt>
<wgt id='1571'> +7.9663016e+01 </wgt>
<wgt id='1572'> +7.8581506e+01 </wgt>
<wgt id='1573'> +7.7711976e+01 </wgt>
<wgt id='1574'> +7.7536103e+01 </wgt>
<wgt id='1575'> +7.7859629e+01 </wgt>
<wgt id='1576'> +7.8538537e+01 </wgt>
<wgt id='1577'> +7.9506669e+01 </wgt>
<wgt id='1578'> +7.9118146e+01 </wgt>
<wgt id='1579'> +8.0631825e+01 </wgt>
<wgt id='1580'> +7.6506233e+01 </wgt>
<wgt id='1581'> +7.7877403e+01 </wgt>
<wgt id='1582'> +7.7969105e+01 </wgt>
<wgt id='1583'> +7.8423758e+01 </wgt>
<wgt id='1584'> +7.9271022e+01 </wgt>
<wgt id='1585'> +7.8989695e+01 </wgt>
<wgt id='1586'> +8.0822041e+01 </wgt>
<wgt id='1587'> +7.7874253e+01 </wgt>
<wgt id='1588'> +7.9941853e+01 </wgt>
<wgt id='1589'> +7.9998872e+01 </wgt>
<wgt id='1590'> +7.9621911e+01 </wgt>
<wgt id='1591'> +8.0059302e+01 </wgt>
<wgt id='1592'> +7.9983362e+01 </wgt>
<wgt id='1593'> +7.8833836e+01 </wgt>
<wgt id='1594'> +7.9392703e+01 </wgt>
<wgt id='1595'> +7.9169893e+01 </wgt>
<wgt id='1596'> +7.9355204e+01 </wgt>
<wgt id='1597'> +7.9580610e+01 </wgt>
<wgt id='1598'> +7.9207777e+01 </wgt>
<wgt id='1599'> +7.9453987e+01 </wgt>
<wgt id='1600'> +7.9305940e+01 </wgt>
<wgt id='1601'> +7.9760453e+01 </wgt>
<wgt id='1602'> +7.9470928e+01 </wgt>
<wgt id='1603'> +7.9435825e+01 </wgt>
<wgt id='1604'> +7.9749500e+01 </wgt>
<wgt id='1605'> +7.9232082e+01 </wgt>
<wgt id='1606'> +7.9200723e+01 </wgt>
<wgt id='1607'> +7.9490836e+01 </wgt>
<wgt id='1608'> +7.9441908e+01 </wgt>
<wgt id='1609'> +7.9195212e+01 </wgt>
<wgt id='1610'> +7.9168184e+01 </wgt>
<wgt id='1611'> +7.9493193e+01 </wgt>
<wgt id='1612'> +7.9385425e+01 </wgt>
<wgt id='1613'> +7.9227661e+01 </wgt>
<wgt id='1614'> +7.9138392e+01 </wgt>
<wgt id='1615'> +7.9153732e+01 </wgt>
<wgt id='1616'> +7.9417969e+01 </wgt>
<wgt id='1617'> +7.9269786e+01 </wgt>
<wgt id='1618'> +7.9515296e+01 </wgt>
<wgt id='1619'> +7.9606719e+01 </wgt>
<wgt id='1620'> +7.9464146e+01 </wgt>
<wgt id='1621'> +7.9434410e+01 </wgt>
<wgt id='1622'> +7.9348860e+01 </wgt>
<wgt id='1623'> +7.9227970e+01 </wgt>
<wgt id='1624'> +7.9231501e+01 </wgt>
<wgt id='1625'> +7.9458831e+01 </wgt>
<wgt id='1626'> +7.9383170e+01 </wgt>
<wgt id='1627'> +7.9267156e+01 </wgt>
<wgt id='1628'> +7.9324818e+01 </wgt>
<wgt id='1629'> +7.9367042e+01 </wgt>
<wgt id='1630'> +7.9365613e+01 </wgt>
<wgt id='1631'> +7.9325862e+01 </wgt>
<wgt id='1632'> +7.9349374e+01 </wgt>
<wgt id='1633'> +7.9337537e+01 </wgt>
<wgt id='1634'> +7.9385394e+01 </wgt>
<wgt id='1635'> +7.9382941e+01 </wgt>
<wgt id='1636'> +7.9361746e+01 </wgt>
<wgt id='1637'> +7.9380730e+01 </wgt>
<wgt id='1638'> +7.9473404e+01 </wgt>
<wgt id='1639'> +7.9382644e+01 </wgt>
<wgt id='1640'> +7.9355882e+01 </wgt>
<wgt id='1641'> +7.9442297e+01 </wgt>
<wgt id='1642'> +7.9312400e+01 </wgt>
<wgt id='1643'> +7.9349014e+01 </wgt>
<wgt id='1644'> +7.9336744e+01 </wgt>
<wgt id='1645'> +7.9336638e+01 </wgt>
<wgt id='1646'> +7.9360731e+01 </wgt>
<wgt id='1647'> +7.9336130e+01 </wgt>
<wgt id='1648'> +7.9376754e+01 </wgt>
<wgt id='1649'> +7.9399427e+01 </wgt>
<wgt id='1650'> +7.9359866e+01 </wgt>
<wgt id='1651'> +7.9322183e+01 </wgt>
<wgt id='1652'> +7.9304320e+01 </wgt>
<wgt id='1653'> +7.9343197e+01 </wgt>
<wgt id='1654'> +7.9325499e+01 </wgt>
<wgt id='1655'> +7.9370961e+01 </wgt>
<wgt id='1656'> +7.9302623e+01 </wgt>
<wgt id='1657'> +7.9395735e+01 </wgt>
<wgt id='1658'> +7.9346683e+01 </wgt>
<wgt id='1659'> +7.9355175e+01 </wgt>
<wgt id='1660'> +7.9345025e+01 </wgt>
<wgt id='1661'> +7.9357490e+01 </wgt>
<wgt id='1662'> +7.9368293e+01 </wgt>
<wgt id='1663'> +7.9353713e+01 </wgt>
<wgt id='1664'> +7.9346414e+01 </wgt>
<wgt id='1665'> +7.9325768e+01 </wgt>
<wgt id='1666'> +7.9354250e+01 </wgt>
<wgt id='1667'> +7.9356468e+01 </wgt>
<wgt id='1668'> +7.9338457e+01 </wgt>
<wgt id='1669'> +7.9333833e+01 </wgt>
<wgt id='1670'> +7.7762363e+01 </wgt>
<wgt id='1671'> +8.0383815e+01 </wgt>
<wgt id='1672'> +7.8389700e+01 </wgt>
<wgt id='1673'> +7.7750951e+01 </wgt>
<wgt id='1674'> +8.1984750e+01 </wgt>
<wgt id='1675'> +7.8406025e+01 </wgt>
<wgt id='1676'> +7.8871275e+01 </wgt>
<wgt id='1677'> +7.9706139e+01 </wgt>
<wgt id='1678'> +7.8899923e+01 </wgt>
<wgt id='1679'> +7.8325608e+01 </wgt>
<wgt id='1680'> +7.8570271e+01 </wgt>
<wgt id='1681'> +7.7411892e+01 </wgt>
<wgt id='1682'> +7.8345212e+01 </wgt>
<wgt id='1683'> +8.0964900e+01 </wgt>
<wgt id='1684'> +7.8263888e+01 </wgt>
<wgt id='1685'> +7.8303711e+01 </wgt>
<wgt id='1686'> +7.9483790e+01 </wgt>
<wgt id='1687'> +7.8678957e+01 </wgt>
<wgt id='1688'> +7.8590998e+01 </wgt>
<wgt id='1689'> +7.7988571e+01 </wgt>
<wgt id='1690'> +7.8274279e+01 </wgt>
<wgt id='1691'> +7.8464325e+01 </wgt>
<wgt id='1692'> +7.7962266e+01 </wgt>
<wgt id='1693'> +7.8671189e+01 </wgt>
<wgt id='1694'> +7.8152489e+01 </wgt>
<wgt id='1695'> +7.8215784e+01 </wgt>
<wgt id='1696'> +7.8380844e+01 </wgt>
<wgt id='1697'> +7.8485988e+01 </wgt>
<wgt id='1698'> +7.7590771e+01 </wgt>
<wgt id='1699'> +7.8486492e+01 </wgt>
<wgt id='1700'> +7.8141265e+01 </wgt>
<wgt id='1701'> +7.9023880e+01 </wgt>
<wgt id='1702'> +7.8277185e+01 </wgt>
<wgt id='1703'> +7.6824307e+01 </wgt>
<wgt id='1704'> +8.0057327e+01 </wgt>
<wgt id='1705'> +7.9357030e+01 </wgt>
<wgt id='1706'> +8.1580801e+01 </wgt>
<wgt id='1707'> +7.7677649e+01 </wgt>
<wgt id='1708'> +7.9360722e+01 </wgt>
<wgt id='1709'> +8.1462476e+01 </wgt>
<wgt id='1710'> +7.8448531e+01 </wgt>
<wgt id='1711'> +7.9516465e+01 </wgt>
<wgt id='1712'> +7.9465778e+01 </wgt>
<wgt id='1713'> +7.9920286e+01 </wgt>
<wgt id='1714'> +8.0696902e+01 </wgt>
<wgt id='1715'> +7.9556963e+01 </wgt>
<wgt id='1716'> +7.7240409e+01 </wgt>
<wgt id='1717'> +7.8999871e+01 </wgt>
<wgt id='1718'> +7.9504426e+01 </wgt>
<wgt id='1719'> +7.9414503e+01 </wgt>
<wgt id='1720'> +7.9495502e+01 </wgt>
<wgt id='1721'> +7.9444275e+01 </wgt>
<wgt id='1722'> +7.9856427e+01 </wgt>
<wgt id='1723'> +7.9439836e+01 </wgt>
<wgt id='1724'> +7.9835377e+01 </wgt>
<wgt id='1725'> +7.8784604e+01 </wgt>
<wgt id='1726'> +7.9225826e+01 </wgt>
<wgt id='1727'> +7.9424399e+01 </wgt>
<wgt id='1728'> +7.9266498e+01 </wgt>
<wgt id='1729'> +7.8870362e+01 </wgt>
<wgt id='1730'> +7.9770478e+01 </wgt>
<wgt id='1731'> +7.9730562e+01 </wgt>
<wgt id='1732'> +7.8596165e+01 </wgt>
<wgt id='1733'> +7.8687521e+01 </wgt>
<wgt id='1734'> +7.9969176e+01 </wgt>
<wgt id='1735'> +7.8218867e+01 </wgt>
<wgt id='1736'> +7.7762363e+01 </wgt>
<wgt id='1737'> +8.0383815e+01 </wgt>
<wgt id='1738'> +8.6243654e+01 </wgt>
<wgt id='1739'> +8.6237086e+01 </wgt>
<wgt id='1740'> +8.6250187e+01 </wgt>
<wgt id='1741'> +8.6351813e+01 </wgt>
<wgt id='1742'> +8.6135500e+01 </wgt>
<wgt id='1743'> +8.6408649e+01 </wgt>
<wgt id='1744'> +8.6078924e+01 </wgt>
<wgt id='1745'> +8.6332780e+01 </wgt>
<wgt id='1746'> +8.6154662e+01 </wgt>
<wgt id='1747'> +8.6489351e+01 </wgt>
<wgt id='1748'> +8.5999677e+01 </wgt>
<wgt id='1749'> +8.6267018e+01 </wgt>
<wgt id='1750'> +8.6233273e+01 </wgt>
<wgt id='1751'> +8.5975533e+01 </wgt>
<wgt id='1752'> +8.6514184e+01 </wgt>
<wgt id='1753'> +8.6160785e+01 </wgt>
<wgt id='1754'> +8.6198786e+01 </wgt>
<wgt id='1755'> +8.6299277e+01 </wgt>
<wgt id='1756'> +8.6152461e+01 </wgt>
<wgt id='1757'> +8.5915832e+01 </wgt>
<wgt id='1758'> +8.6560480e+01 </wgt>
<wgt id='1759'> +8.6358908e+01 </wgt>
<wgt id='1760'> +8.6027549e+01 </wgt>
<wgt id='1761'> +8.6032595e+01 </wgt>
<wgt id='1762'> +8.6031291e+01 </wgt>
<wgt id='1763'> +8.6586323e+01 </wgt>
<wgt id='1764'> +8.6019854e+01 </wgt>
<wgt id='1765'> +8.6231545e+01 </wgt>
<wgt id='1766'> +8.6319792e+01 </wgt>
<wgt id='1767'> +8.6243654e+01 </wgt>
<wgt id='1768'> +7.9935112e+01 </wgt>
<wgt id='1769'> +9.3933365e+01 </wgt>
<wgt id='1770'> +7.7839696e+01 </wgt>
<wgt id='1771'> +8.9482886e+01 </wgt>
<wgt id='1772'> +8.6572298e+01 </wgt>
<wgt id='1773'> +8.5781045e+01 </wgt>
<wgt id='1774'> +8.5971157e+01 </wgt>
<wgt id='1775'> +8.6492575e+01 </wgt>
<wgt id='1776'> +8.5729505e+01 </wgt>
<wgt id='1777'> +8.6745803e+01 </wgt>
<wgt id='1778'> +8.6512021e+01 </wgt>
<wgt id='1779'> +8.6428858e+01 </wgt>
<wgt id='1780'> +8.4449357e+01 </wgt>
<wgt id='1781'> +8.3997487e+01 </wgt>
<wgt id='1782'> +8.4037369e+01 </wgt>
<wgt id='1783'> +8.3953570e+01 </wgt>
<wgt id='1784'> +8.3993122e+01 </wgt>
<wgt id='1785'> +8.3997773e+01 </wgt>
<wgt id='1786'> +8.4160253e+01 </wgt>
<wgt id='1787'> +8.3830841e+01 </wgt>
<wgt id='1788'> +8.4096333e+01 </wgt>
<wgt id='1789'> +8.3893126e+01 </wgt>
<wgt id='1790'> +8.4148817e+01 </wgt>
<wgt id='1791'> +8.3844224e+01 </wgt>
<wgt id='1792'> +8.4159643e+01 </wgt>
<wgt id='1793'> +8.3831496e+01 </wgt>
<wgt id='1794'> +8.3761485e+01 </wgt>
<wgt id='1795'> +8.4228037e+01 </wgt>
<wgt id='1796'> +8.3839376e+01 </wgt>
<wgt id='1797'> +8.4072103e+01 </wgt>
<wgt id='1798'> +8.4040334e+01 </wgt>
<wgt id='1799'> +8.3932667e+01 </wgt>
<wgt id='1800'> +8.3790465e+01 </wgt>
<wgt id='1801'> +8.4194479e+01 </wgt>
<wgt id='1802'> +8.3473560e+01 </wgt>
<wgt id='1803'> +8.4400026e+01 </wgt>
<wgt id='1804'> +8.4379920e+01 </wgt>
<wgt id='1805'> +8.3605226e+01 </wgt>
<wgt id='1806'> +8.4182011e+01 </wgt>
<wgt id='1807'> +8.3624949e+01 </wgt>
<wgt id='1808'> +8.4324003e+01 </wgt>
<wgt id='1809'> +8.3766185e+01 </wgt>
<wgt id='1810'> +8.4012482e+01 </wgt>
<wgt id='1811'> +7.7214635e+01 </wgt>
<wgt id='1812'> +9.2248506e+01 </wgt>
<wgt id='1813'> +7.5024446e+01 </wgt>
<wgt id='1814'> +8.7664433e+01 </wgt>
<wgt id='1815'> +8.4857847e+01 </wgt>
<wgt id='1816'> +8.3484008e+01 </wgt>
<wgt id='1817'> +8.3747324e+01 </wgt>
<wgt id='1818'> +8.4302812e+01 </wgt>
<wgt id='1819'> +8.3975437e+01 </wgt>
<wgt id='1820'> +8.5209002e+01 </wgt>
<wgt id='1821'> +8.4263062e+01 </wgt>
<wgt id='1822'> +8.4116837e+01 </wgt>
<wgt id='1823'> +8.3025404e+01 </wgt>
<wgt id='1824'> +7.8324180e+01 </wgt>
<wgt id='1825'> +7.8304264e+01 </wgt>
<wgt id='1826'> +7.8284142e+01 </wgt>
<wgt id='1827'> +7.8264051e+01 </wgt>
<wgt id='1828'> +7.8243975e+01 </wgt>
<wgt id='1829'> +7.8223990e+01 </wgt>
<wgt id='1830'> +7.8203766e+01 </wgt>
<wgt id='1831'> +7.8183683e+01 </wgt>
<wgt id='1832'> +7.8163755e+01 </wgt>
<wgt id='1833'> +7.8143678e+01 </wgt>
<wgt id='1834'> +7.8123598e+01 </wgt>
<wgt id='1835'> +7.8103524e+01 </wgt>
<wgt id='1836'> +7.8083606e+01 </wgt>
<wgt id='1837'> +7.8063380e+01 </wgt>
<wgt id='1838'> +7.8043124e+01 </wgt>
<wgt id='1839'> +7.8023391e+01 </wgt>
<wgt id='1840'> +7.8003176e+01 </wgt>
<wgt id='1841'> +7.7983285e+01 </wgt>
<wgt id='1842'> +7.7963195e+01 </wgt>
<wgt id='1843'> +7.7943143e+01 </wgt>
<wgt id='1844'> +7.7923101e+01 </wgt>
<wgt id='1845'> +7.7903042e+01 </wgt>
<wgt id='1846'> +7.7882965e+01 </wgt>
<wgt id='1847'> +7.7862961e+01 </wgt>
<wgt id='1848'> +7.7843024e+01 </wgt>
<wgt id='1849'> +7.7822972e+01 </wgt>
<wgt id='1850'> +7.7802943e+01 </wgt>
<wgt id='1851'> +7.7782878e+01 </wgt>
<wgt id='1852'> +7.7763029e+01 </wgt>
<wgt id='1853'> +7.7742847e+01 </wgt>
<wgt id='1854'> +7.7722619e+01 </wgt>
<wgt id='1855'> +7.8603702e+01 </wgt>
<wgt id='1856'> +7.9464445e+01 </wgt>
<wgt id='1857'> +7.8906990e+01 </wgt>
<wgt id='1858'> +7.7835125e+01 </wgt>
<wgt id='1859'> +7.6968589e+01 </wgt>
<wgt id='1860'> +7.6796674e+01 </wgt>
<wgt id='1861'> +7.7128512e+01 </wgt>
<wgt id='1862'> +7.7804023e+01 </wgt>
<wgt id='1863'> +7.8754603e+01 </wgt>
<wgt id='1864'> +7.8371302e+01 </wgt>
<wgt id='1865'> +7.9865396e+01 </wgt>
<wgt id='1866'> +7.5789671e+01 </wgt>
<wgt id='1867'> +7.7145601e+01 </wgt>
<wgt id='1868'> +7.7233905e+01 </wgt>
<wgt id='1869'> +7.7681449e+01 </wgt>
<wgt id='1870'> +7.8504071e+01 </wgt>
<wgt id='1871'> +7.8254081e+01 </wgt>
<wgt id='1872'> +8.0053339e+01 </wgt>
<wgt id='1873'> +7.7129863e+01 </wgt>
<wgt id='1874'> +7.9195567e+01 </wgt>
<wgt id='1875'> +7.9250206e+01 </wgt>
<wgt id='1876'> +7.8860835e+01 </wgt>
<wgt id='1877'> +7.9302581e+01 </wgt>
<wgt id='1878'> +7.9229155e+01 </wgt>
<wgt id='1879'> +7.8078469e+01 </wgt>
<wgt id='1880'> +7.8632565e+01 </wgt>
<wgt id='1881'> +7.8413292e+01 </wgt>
<wgt id='1882'> +7.8611014e+01 </wgt>
<wgt id='1883'> +7.8831187e+01 </wgt>
<wgt id='1884'> +7.8455530e+01 </wgt>
<wgt id='1885'> +7.8693606e+01 </wgt>
<wgt id='1886'> +7.8565766e+01 </wgt>
<wgt id='1887'> +7.9000001e+01 </wgt>
<wgt id='1888'> +7.8716360e+01 </wgt>
<wgt id='1889'> +7.8681951e+01 </wgt>
<wgt id='1890'> +7.8990907e+01 </wgt>
<wgt id='1891'> +7.8482743e+01 </wgt>
<wgt id='1892'> +7.8452109e+01 </wgt>
<wgt id='1893'> +7.8736049e+01 </wgt>
<wgt id='1894'> +7.8684525e+01 </wgt>
<wgt id='1895'> +7.8444601e+01 </wgt>
<wgt id='1896'> +7.8416456e+01 </wgt>
<wgt id='1897'> +7.8740873e+01 </wgt>
<wgt id='1898'> +7.8636474e+01 </wgt>
<wgt id='1899'> +7.8476790e+01 </wgt>
<wgt id='1900'> +7.8387838e+01 </wgt>
<wgt id='1901'> +7.8406502e+01 </wgt>
<wgt id='1902'> +7.8664569e+01 </wgt>
<wgt id='1903'> +7.8520616e+01 </wgt>
<wgt id='1904'> +7.8763484e+01 </wgt>
<wgt id='1905'> +7.8854346e+01 </wgt>
<wgt id='1906'> +7.8711302e+01 </wgt>
<wgt id='1907'> +7.8678788e+01 </wgt>
<wgt id='1908'> +7.8596426e+01 </wgt>
<wgt id='1909'> +7.8483178e+01 </wgt>
<wgt id='1910'> +7.8480466e+01 </wgt>
<wgt id='1911'> +7.8702813e+01 </wgt>
<wgt id='1912'> +7.8629632e+01 </wgt>
<wgt id='1913'> +7.8520367e+01 </wgt>
<wgt id='1914'> +7.8576006e+01 </wgt>
<wgt id='1915'> +7.8614565e+01 </wgt>
<wgt id='1916'> +7.8613460e+01 </wgt>
<wgt id='1917'> +7.8578734e+01 </wgt>
<wgt id='1918'> +7.8596769e+01 </wgt>
<wgt id='1919'> +7.8590944e+01 </wgt>
<wgt id='1920'> +7.8634573e+01 </wgt>
<wgt id='1921'> +7.8628078e+01 </wgt>
<wgt id='1922'> +7.8609744e+01 </wgt>
<wgt id='1923'> +7.8626999e+01 </wgt>
<wgt id='1924'> +7.8717231e+01 </wgt>
<wgt id='1925'> +7.8628724e+01 </wgt>
<wgt id='1926'> +7.8605761e+01 </wgt>
<wgt id='1927'> +7.8688498e+01 </wgt>
<wgt id='1928'> +7.8559896e+01 </wgt>
<wgt id='1929'> +7.8598492e+01 </wgt>
<wgt id='1930'> +7.8586571e+01 </wgt>
<wgt id='1931'> +7.8588095e+01 </wgt>
<wgt id='1932'> +7.8611378e+01 </wgt>
<wgt id='1933'> +7.8584294e+01 </wgt>
<wgt id='1934'> +7.8624231e+01 </wgt>
<wgt id='1935'> +7.8645022e+01 </wgt>
<wgt id='1936'> +7.8609043e+01 </wgt>
<wgt id='1937'> +7.8572780e+01 </wgt>
<wgt id='1938'> +7.8554616e+01 </wgt>
<wgt id='1939'> +7.8591914e+01 </wgt>
<wgt id='1940'> +7.8573979e+01 </wgt>
<wgt id='1941'> +7.8620333e+01 </wgt>
<wgt id='1942'> +7.8551381e+01 </wgt>
<wgt id='1943'> +7.8640804e+01 </wgt>
<wgt id='1944'> +7.8593281e+01 </wgt>
<wgt id='1945'> +7.8603480e+01 </wgt>
<wgt id='1946'> +7.8590995e+01 </wgt>
<wgt id='1947'> +7.8603669e+01 </wgt>
<wgt id='1948'> +7.8615705e+01 </wgt>
<wgt id='1949'> +7.8599661e+01 </wgt>
<wgt id='1950'> +7.8594600e+01 </wgt>
<wgt id='1951'> +7.8575419e+01 </wgt>
<wgt id='1952'> +7.8602900e+01 </wgt>
<wgt id='1953'> +7.8604243e+01 </wgt>
<wgt id='1954'> +7.8588028e+01 </wgt>
<wgt id='1955'> +7.8583782e+01 </wgt>
<wgt id='1956'> +7.8603037e+01 </wgt>
<wgt id='1957'> +7.8607324e+01 </wgt>
<wgt id='1958'> +7.8604398e+01 </wgt>
<wgt id='1959'> +7.8604514e+01 </wgt>
<wgt id='1960'> +7.8605739e+01 </wgt>
<wgt id='1961'> +7.8603998e+01 </wgt>
<wgt id='1962'> +7.8608079e+01 </wgt>
</rwgt>
</event>
<event npLO=" -1 " npNLO=" 0 ">
 6      0 +1.5146096e+02 1.06674490e+02 7.54677110e-03 1.02371880e-01
       21 -1    0    0  502  501 +0.0000000000e+00 +0.0000000000e+00 +4.1932952000e+01 4.1932952000e+01 0.0000000000e+00 0.0000e+00 9.0000e+00
        1 -1    0    0  501    0 +0.0000000000e+00 +0.0000000000e+00 -1.4906564000e+03 1.4906564000e+03 0.0000000000e+00 0.0000e+00 9.0000e+00
       13  1    1    2    0    0 +5.0077100000e+01 -1.8257956000e+01 -1.7240455000e+02 1.8045608000e+02 0.0000000000e+00 0.0000e+00 9.0000e+00
      -13  1    1    2    0    0 -7.3972382000e+01 +1.2984982000e+02 -1.5127760000e+02 2.1264478000e+02 0.0000000000e+00 0.0000e+00 9.0000e+00
       22  1    1    2    0    0 +2.3290775000e+01 -1.6122748000e+01 -3.3893880000e+01 4.4172370000e+01 0.0000000000e+00 0.0000e+00 9.0000e+00
        1  1    1    2  502    0 +6.0450683000e-01 -9.5469117000e+01 -1.0911474000e+03 1.0953161000e+03 0.0000000000e+00 0.0000e+00 9.0000e+00
#aMCatNLO 2  0  0  1  1 0.37894084E+03 0.00000000E+00 -9  6  0 0.00000000E+00 0.00000000E+00 0.00000000E+00 0.00000000E+00 0.00000000E+00
<rwgt>
<wgt id='1001'> +1.5146000e+02 </wgt>
<wgt id='1002'> +1.5146000e+02 </wgt>
<wgt id='1003'> +1.4392000e+02 </wgt>
<wgt id='1004'> +1.5041000e+02 </wgt>
<wgt id='1005'> +1.5225000e+02 </wgt>
<wgt id='1006'> +1.5213000e+02 </wgt>
<wgt id='1007'> +1.4469000e+02 </wgt>
<wgt id='1008'> +1.5156000e+02 </wgt>
<wgt id='1009'> +1.5418000e+02 </wgt>
<wgt id='1010'> +1.5518000e+02 </wgt>
<wgt id='1011'> +1.5305000e+02 </wgt>
<wgt id='1012'> +1.5332000e+02 </wgt>
<wgt id='1013'> +1.5194000e+02 </wgt>
<wgt id='1014'> +1.5142000e+02 </wgt>
<wgt id='1015'> +1.4926000e+02 </wgt>
<wgt id='1016'> +1.4749000e+02 </wgt>
<wgt id='1017'> +1.5298000e+02 </wgt>
<wgt id='1018'> +1.5505000e+02 </wgt>
<wgt id='1019'> +1.4672000e+02 </wgt>
<wgt id='1020'> +1.4232000e+02 </wgt>
<wgt id='1021'> +1.5466000e+02 </wgt>
<wgt id='1022'> +1.4796000e+02 </wgt>
<wgt id='1023'> +1.5822000e+02 </wgt>
<wgt id='1024'> +1.5178000e+02 </wgt>
<wgt id='1025'> +1.6452000e+02 </wgt>
<wgt id='1026'> +1.5213000e+02 </wgt>
<wgt id='1027'> +1.5010000e+02 </wgt>
<wgt id='1028'> +1.5038000e+02 </wgt>
<wgt id='1029'> +1.4941000e+02 </wgt>
<wgt id='1030'> +1.4391000e+02 </wgt>
<wgt id='1031'> +1.4983000e+02 </wgt>
<wgt id='1032'> +1.5397000e+02 </wgt>
<wgt id='1033'> +1.5162000e+02 </wgt>
<wgt id='1034'> +1.5464000e+02 </wgt>
<wgt id='1035'> +1.4927000e+02 </wgt>
<wgt id='1036'> +1.5195000e+02 </wgt>
<wgt id='1037'> +1.6047000e+02 </wgt>
<wgt id='1038'> +1.5580000e+02 </wgt>
<wgt id='1039'> +1.4654000e+02 </wgt>
<wgt id='1040'> +1.5480000e+02 </wgt>
<wgt id='1041'> +1.4952000e+02 </wgt>
<wgt id='1042'> +1.5054000e+02 </wgt>
<wgt id='1043'> +1.5231000e+02 </wgt>
<wgt id='1044'> +1.5141000e+02 </wgt>
<wgt id='1045'> +1.5079000e+02 </wgt>
<wgt id='1046'> +1.5023000e+02 </wgt>
<wgt id='1047'> +1.5860000e+02 </wgt>
<wgt id='1048'> +1.4772000e+02 </wgt>
<wgt id='1049'> +1.5040000e+02 </wgt>
<wgt id='1050'> +1.5149000e+02 </wgt>
<wgt id='1051'> +1.4956000e+02 </wgt>
<wgt id='1052'> +1.5027000e+02 </wgt>
<wgt id='1053'> +1.5324000e+02 </wgt>
<wgt id='1054'> +1.5595000e+02 </wgt>
<wgt id='1055'> +1.5083000e+02 </wgt>
<wgt id='1056'> +1.5293000e+02 </wgt>
<wgt id='1057'> +1.5307000e+02 </wgt>
<wgt id='1058'> +1.4146000e+02 </wgt>
<wgt id='1059'> +1.4624000e+02 </wgt>
<wgt id='1060'> +1.4759000e+02 </wgt>
<wgt id='1061'> +1.5089000e+02 </wgt>
<wgt id='1062'> +1.5490000e+02 </wgt>
<wgt id='1063'> +1.4704000e+02 </wgt>
<wgt id='1064'> +1.4834000e+02 </wgt>
<wgt id='1065'> +1.5477000e+02 </wgt>
<wgt id='1066'> +1.4044000e+02 </wgt>
<wgt id='1067'> +1.5147000e+02 </wgt>
<wgt id='1068'> +1.4902000e+02 </wgt>
<wgt id='1069'> +1.6907000e+02 </wgt>
<wgt id='1070'> +1.4866000e+02 </wgt>
<wgt id='1071'> +1.5916000e+02 </wgt>
<wgt id='1072'> +1.4569000e+02 </wgt>
<wgt id='1073'> +1.5225000e+02 </wgt>
<wgt id='1074'> +1.5142000e+02 </wgt>
<wgt id='1075'> +1.5316000e+02 </wgt>
<wgt id='1076'> +1.5454000e+02 </wgt>
<wgt id='1077'> +1.5009000e+02 </wgt>
<wgt id='1078'> +1.5409000e+02 </wgt>
<wgt id='1079'> +1.5806000e+02 </wgt>
<wgt id='1080'> +1.6217000e+02 </wgt>
<wgt id='1081'> +1.4757000e+02 </wgt>
<wgt id='1082'> +1.5222000e+02 </wgt>
<wgt id='1083'> +1.5146000e+02 </wgt>
<wgt id='1084'> +1.5857000e+02 </wgt>
<wgt id='1085'> +1.4330000e+02 </wgt>
<wgt id='1086'> +1.5141000e+02 </wgt>
<wgt id='1087'> +1.5016000e+02 </wgt>
<wgt id='1088'> +1.5732000e+02 </wgt>
<wgt id='1089'> +1.4669000e+02 </wgt>
<wgt id='1090'> +1.5142000e+02 </wgt>
<wgt id='1091'> +1.4748000e+02 </wgt>
<wgt id='1092'> +1.5477000e+02 </wgt>
<wgt id='1093'> +1.5469000e+02 </wgt>
<wgt id='1094'> +1.5543000e+02 </wgt>
<wgt id='1095'> +1.4769000e+02 </wgt>
<wgt id='1096'> +1.5496000e+02 </wgt>
<wgt id='1097'> +1.4277000e+02 </wgt>
<wgt id='1098'> +1.5650000e+02 </wgt>
<wgt id='1099'> +1.5069000e+02 </wgt>
<wgt id='1100'> +1.5499000e+02 </wgt>
<wgt id='1101'> +1.4997000e+02 </wgt>
<wgt id='1102'> +1.3715000e+02 </wgt>
<wgt id='1103'> +1.5111000e+02 </wgt>
<wgt id='1104'> +1.5135000e+02 </wgt>
<wgt id='1105'> +1.5146096e+02 </wgt>
<wgt id='1106'> +6.9473904e+01 </wgt>
<wgt id='1107'> +8.3252504e+01 </wgt>
<wgt id='1108'> +7.3535947e+01 </wgt>
<wgt id='1109'> +6.7460674e+01 </wgt>
<wgt id='1110'> +8.0839995e+01 </wgt>
<wgt id='1111'> +7.7610925e+01 </wgt>
<wgt id='1112'> +7.1198992e+01 </wgt>
<wgt id='1113'> +8.5319726e+01 </wgt>
<wgt id='1114'> +7.8033092e+01 </wgt>
<wgt id='1115'> +7.7140890e+01 </wgt>
<wgt id='1116'> +7.8237866e+01 </wgt>
<wgt id='1117'> +7.7707628e+01 </wgt>
<wgt id='1118'> +7.7435276e+01 </wgt>
<wgt id='1119'> +7.9066005e+01 </wgt>
<wgt id='1120'> +7.9130083e+01 </wgt>
<wgt id='1121'> +7.7391867e+01 </wgt>
<wgt id='1122'> +7.8340365e+01 </wgt>
<wgt id='1123'> +8.0851389e+01 </wgt>
<wgt id='1124'> +7.3940153e+01 </wgt>
<wgt id='1125'> +7.5021676e+01 </wgt>
<wgt id='1126'> +7.9464817e+01 </wgt>
<wgt id='1127'> +7.5120951e+01 </wgt>
<wgt id='1128'> +7.8775594e+01 </wgt>
<wgt id='1129'> +8.0079360e+01 </wgt>
<wgt id='1130'> +7.9664553e+01 </wgt>
<wgt id='1131'> +7.7462417e+01 </wgt>
<wgt id='1132'> +8.0093725e+01 </wgt>
<wgt id='1133'> +7.9695871e+01 </wgt>
<wgt id='1134'> +7.9233749e+01 </wgt>
<wgt id='1135'> +7.9317113e+01 </wgt>
<wgt id='1136'> +7.9853203e+01 </wgt>
<wgt id='1137'> +8.1188607e+01 </wgt>
<wgt id='1138'> +7.7968519e+01 </wgt>
<wgt id='1139'> +8.1431427e+01 </wgt>
<wgt id='1140'> +8.0462245e+01 </wgt>
<wgt id='1141'> +7.5233588e+01 </wgt>
<wgt id='1142'> +7.8026877e+01 </wgt>
<wgt id='1143'> +7.7051307e+01 </wgt>
<wgt id='1144'> +7.4117753e+01 </wgt>
<wgt id='1145'> +7.5839540e+01 </wgt>
<wgt id='1146'> +7.7361326e+01 </wgt>
<wgt id='1147'> +8.0741806e+01 </wgt>
<wgt id='1148'> +7.5674491e+01 </wgt>
<wgt id='1149'> +7.8279494e+01 </wgt>
<wgt id='1150'> +8.0044831e+01 </wgt>
<wgt id='1151'> +8.0312919e+01 </wgt>
<wgt id='1152'> +7.6141565e+01 </wgt>
<wgt id='1153'> +7.2574441e+01 </wgt>
<wgt id='1154'> +7.6858817e+01 </wgt>
<wgt id='1155'> +7.6945710e+01 </wgt>
<wgt id='1156'> +7.6890131e+01 </wgt>
<wgt id='1157'> +7.7190708e+01 </wgt>
<wgt id='1158'> +7.4291417e+01 </wgt>
<wgt id='1159'> +7.6334578e+01 </wgt>
<wgt id='1160'> +7.8138154e+01 </wgt>
<wgt id='1161'> +7.9181857e+01 </wgt>
<wgt id='1162'> +7.6506976e+01 </wgt>
<wgt id='1163'> +7.7535508e+01 </wgt>
<wgt id='1164'> +7.8156203e+01 </wgt>
<wgt id='1165'> +7.6689139e+01 </wgt>
<wgt id='1166'> +8.1048473e+01 </wgt>
<wgt id='1167'> +7.7573243e+01 </wgt>
<wgt id='1168'> +7.9572552e+01 </wgt>
<wgt id='1169'> +7.7164020e+01 </wgt>
<wgt id='1170'> +7.7804242e+01 </wgt>
<wgt id='1171'> +8.0381959e+01 </wgt>
<wgt id='1172'> +7.9156350e+01 </wgt>
<wgt id='1173'> +7.9668975e+01 </wgt>
<wgt id='1174'> +8.2204845e+01 </wgt>
<wgt id='1175'> +7.7966998e+01 </wgt>
<wgt id='1176'> +8.0919185e+01 </wgt>
<wgt id='1177'> +7.7790042e+01 </wgt>
<wgt id='1178'> +7.7240923e+01 </wgt>
<wgt id='1179'> +8.1280683e+01 </wgt>
<wgt id='1180'> +7.7233485e+01 </wgt>
<wgt id='1181'> +7.7506932e+01 </wgt>
<wgt id='1182'> +7.9389850e+01 </wgt>
<wgt id='1183'> +7.8039757e+01 </wgt>
<wgt id='1184'> +7.5368741e+01 </wgt>
<wgt id='1185'> +7.8726673e+01 </wgt>
<wgt id='1186'> +7.5387170e+01 </wgt>
<wgt id='1187'> +8.1323122e+01 </wgt>
<wgt id='1188'> +7.8902306e+01 </wgt>
<wgt id='1189'> +7.7671513e+01 </wgt>
<wgt id='1190'> +7.7467160e+01 </wgt>
<wgt id='1191'> +7.7074544e+01 </wgt>
<wgt id='1192'> +8.0642673e+01 </wgt>
<wgt id='1193'> +8.0809547e+01 </wgt>
<wgt id='1194'> +7.1248157e+01 </wgt>
<wgt id='1195'> +7.7620514e+01 </wgt>
<wgt id='1196'> +7.9664553e+01 </wgt>
<wgt id='1197'> +7.2740895e+01 </wgt>
<wgt id='1198'> +7.8012152e+01 </wgt>
<wgt id='1199'> +7.8295640e+01 </wgt>
<wgt id='1200'> +7.5815410e+01 </wgt>
<wgt id='1201'> +7.9858363e+01 </wgt>
<wgt id='1202'> +7.4313693e+01 </wgt>
<wgt id='1203'> +7.5048930e+01 </wgt>
<wgt id='1204'> +7.7207325e+01 </wgt>
<wgt id='1205'> +7.7734028e+01 </wgt>
<wgt id='1206'> +7.8319933e+01 </wgt>
<wgt id='1207'> +7.8115950e+01 </wgt>
<wgt id='1208'> +7.9843238e+01 </wgt>
<wgt id='1209'> +7.8051214e+01 </wgt>
<wgt id='1210'> +7.9104284e+01 </wgt>
<wgt id='1211'> +7.6779181e+01 </wgt>
<wgt id='1212'> +7.8570124e+01 </wgt>
<wgt id='1213'> +8.2766251e+01 </wgt>
<wgt id='1214'> +7.8565071e+01 </wgt>
<wgt id='1215'> +7.5111912e+01 </wgt>
<wgt id='1216'> +7.6465159e+01 </wgt>
<wgt id='1217'> +7.6819067e+01 </wgt>
<wgt id='1218'> +7.5967337e+01 </wgt>
<wgt id='1219'> +7.6838936e+01 </wgt>
<wgt id='1220'> +7.6196760e+01 </wgt>
<wgt id='1221'> +7.6757614e+01 </wgt>
<wgt id='1222'> +7.6771052e+01 </wgt>
<wgt id='1223'> +7.6741745e+01 </wgt>
<wgt id='1224'> +7.6510697e+01 </wgt>
<wgt id='1225'> +7.6510551e+01 </wgt>
<wgt id='1226'> +7.6646177e+01 </wgt>
<wgt id='1227'> +7.6491770e+01 </wgt>
<wgt id='1228'> +7.6411728e+01 </wgt>
<wgt id='1229'> +7.6285349e+01 </wgt>
<wgt id='1230'> +7.6541018e+01 </wgt>
<wgt id='1231'> +7.6573569e+01 </wgt>
<wgt id='1232'> +7.6731556e+01 </wgt>
<wgt id='1233'> +7.6409389e+01 </wgt>
<wgt id='1234'> +7.6298249e+01 </wgt>
<wgt id='1235'> +7.6213614e+01 </wgt>
<wgt id='1236'> +7.6383583e+01 </wgt>
<wgt id='1237'> +7.6529187e+01 </wgt>
<wgt id='1238'> +7.6465896e+01 </wgt>
<wgt id='1239'> +7.6441988e+01 </wgt>
<wgt id='1240'> +7.6659843e+01 </wgt>
<wgt id='1241'> +7.6382028e+01 </wgt>
<wgt id='1242'> +7.6437673e+01 </wgt>
<wgt id='1243'> +7.6258464e+01 </wgt>
<wgt id='1244'> +7.6754236e+01 </wgt>
<wgt id='1245'> +7.6712415e+01 </wgt>
<wgt id='1246'> +7.5339270e+01 </wgt>
<wgt id='1247'> +7.6231042e+01 </wgt>
<wgt id='1248'> +7.6688172e+01 </wgt>
<wgt id='1249'> +7.6601987e+01 </wgt>
<wgt id='1250'> +7.6288483e+01 </wgt>
<wgt id='1251'> +7.6747117e+01 </wgt>
<wgt id='1252'> +7.6403203e+01 </wgt>
<wgt id='1253'> +7.6378252e+01 </wgt>
<wgt id='1254'> +7.6269688e+01 </wgt>
<wgt id='1255'> +7.6474886e+01 </wgt>
<wgt id='1256'> +7.6190843e+01 </wgt>
<wgt id='1257'> +7.6660039e+01 </wgt>
<wgt id='1258'> +7.6432557e+01 </wgt>
<wgt id='1259'> +7.6430974e+01 </wgt>
<wgt id='1260'> +7.6544737e+01 </wgt>
<wgt id='1261'> +7.6683078e+01 </wgt>
<wgt id='1262'> +7.6373936e+01 </wgt>
<wgt id='1263'> +7.6369564e+01 </wgt>
<wgt id='1264'> +7.6767357e+01 </wgt>
<wgt id='1265'> +7.6283051e+01 </wgt>
<wgt id='1266'> +7.6395210e+01 </wgt>
<wgt id='1267'> +7.6891555e+01 </wgt>
<wgt id='1268'> +7.6465926e+01 </wgt>
<wgt id='1269'> +7.7002798e+01 </wgt>
<wgt id='1270'> +7.6800905e+01 </wgt>
<wgt id='1271'> +7.6416573e+01 </wgt>
<wgt id='1272'> +7.6846005e+01 </wgt>
<wgt id='1273'> +7.6321443e+01 </wgt>
<wgt id='1274'> +7.6435739e+01 </wgt>
<wgt id='1275'> +7.6129137e+01 </wgt>
<wgt id='1276'> +7.6599094e+01 </wgt>
<wgt id='1277'> +7.6521624e+01 </wgt>
<wgt id='1278'> +7.6808452e+01 </wgt>
<wgt id='1279'> +7.6352863e+01 </wgt>
<wgt id='1280'> +7.6541910e+01 </wgt>
<wgt id='1281'> +7.6438613e+01 </wgt>
<wgt id='1282'> +7.6582528e+01 </wgt>
<wgt id='1283'> +7.6629289e+01 </wgt>
<wgt id='1284'> +7.6460077e+01 </wgt>
<wgt id='1285'> +7.6434799e+01 </wgt>
<wgt id='1286'> +7.6707135e+01 </wgt>
<wgt id='1287'> +7.6598556e+01 </wgt>
<wgt id='1288'> +7.6535870e+01 </wgt>
<wgt id='1289'> +7.6593565e+01 </wgt>
<wgt id='1290'> +7.6408585e+01 </wgt>
<wgt id='1291'> +7.6254013e+01 </wgt>
<wgt id='1292'> +7.6414078e+01 </wgt>
<wgt id='1293'> +7.6568561e+01 </wgt>
<wgt id='1294'> +7.6507964e+01 </wgt>
<wgt id='1295'> +7.6527044e+01 </wgt>
<wgt id='1296'> +7.6487872e+01 </wgt>
<wgt id='1297'> +7.6464139e+01 </wgt>
<wgt id='1298'> +7.6354455e+01 </wgt>
<wgt id='1299'> +7.6347879e+01 </wgt>
<wgt id='1300'> +7.6460711e+01 </wgt>
<wgt id='1301'> +7.6293201e+01 </wgt>
<wgt id='1302'> +7.6544739e+01 </wgt>
<wgt id='1303'> +7.6384041e+01 </wgt>
<wgt id='1304'> +7.6429353e+01 </wgt>
<wgt id='1305'> +7.6429288e+01 </wgt>
<wgt id='1306'> +7.6410457e+01 </wgt>
<wgt id='1307'> +7.6635876e+01 </wgt>
<wgt id='1308'> +7.6341108e+01 </wgt>
<wgt id='1309'> +7.6483657e+01 </wgt>
<wgt id='1310'> +7.6461413e+01 </wgt>
<wgt id='1311'> +7.6475513e+01 </wgt>
<wgt id='1312'> +7.6383446e+01 </wgt>
<wgt id='1313'> +7.6386298e+01 </wgt>
<wgt id='1314'> +7.6560681e+01 </wgt>
<wgt id='1315'> +7.6506609e+01 </wgt>
<wgt id='1316'> +7.6556131e+01 </wgt>
<wgt id='1317'> +7.6140585e+01 </wgt>
<wgt id='1318'> +7.7169864e+01 </wgt>
<wgt id='1319'> +8.0496391e+01 </wgt>
<wgt id='1320'> +7.6296989e+01 </wgt>
<wgt id='1321'> +7.4664062e+01 </wgt>
<wgt id='1322'> +7.5167006e+01 </wgt>
<wgt id='1323'> +7.7344151e+01 </wgt>
<wgt id='1324'> +7.5955530e+01 </wgt>
<wgt id='1325'> +7.6578374e+01 </wgt>
<wgt id='1326'> +7.6089239e+01 </wgt>
<wgt id='1327'> +7.7151949e+01 </wgt>
<wgt id='1328'> +7.5973031e+01 </wgt>
<wgt id='1329'> +7.6586239e+01 </wgt>
<wgt id='1330'> +7.5985207e+01 </wgt>
<wgt id='1331'> +7.4684942e+01 </wgt>
<wgt id='1332'> +7.7240561e+01 </wgt>
<wgt id='1333'> +7.4062929e+01 </wgt>
<wgt id='1334'> +7.8791747e+01 </wgt>
<wgt id='1335'> +7.5979137e+01 </wgt>
<wgt id='1336'> +7.6264856e+01 </wgt>
<wgt id='1337'> +7.6788943e+01 </wgt>
<wgt id='1338'> +7.5668461e+01 </wgt>
<wgt id='1339'> +7.7437314e+01 </wgt>
<wgt id='1340'> +7.5130848e+01 </wgt>
<wgt id='1341'> +7.6829796e+01 </wgt>
<wgt id='1342'> +7.5600053e+01 </wgt>
<wgt id='1343'> +7.5410416e+01 </wgt>
<wgt id='1344'> +7.7028266e+01 </wgt>
<wgt id='1345'> +7.5667331e+01 </wgt>
<wgt id='1346'> +7.6858451e+01 </wgt>
<wgt id='1347'> +7.5940201e+01 </wgt>
<wgt id='1348'> +7.6763620e+01 </wgt>
<wgt id='1349'> +7.6305254e+01 </wgt>
<wgt id='1350'> +7.6285985e+01 </wgt>
<wgt id='1351'> +7.6307688e+01 </wgt>
<wgt id='1352'> +7.6283410e+01 </wgt>
<wgt id='1353'> +7.6125652e+01 </wgt>
<wgt id='1354'> +7.6659472e+01 </wgt>
<wgt id='1355'> +7.7129164e+01 </wgt>
<wgt id='1356'> +7.5384236e+01 </wgt>
<wgt id='1357'> +7.6140322e+01 </wgt>
<wgt id='1358'> +7.6413377e+01 </wgt>
<wgt id='1359'> +7.5796760e+01 </wgt>
<wgt id='1360'> +7.6553278e+01 </wgt>
<wgt id='1361'> +7.5010042e+01 </wgt>
<wgt id='1362'> +7.7008084e+01 </wgt>
<wgt id='1363'> +7.7293299e+01 </wgt>
<wgt id='1364'> +7.5619427e+01 </wgt>
<wgt id='1365'> +7.6148093e+01 </wgt>
<wgt id='1366'> +7.6362041e+01 </wgt>
<wgt id='1367'> +7.6339218e+01 </wgt>
<wgt id='1368'> +7.7628007e+01 </wgt>
<wgt id='1369'> +7.6718363e+01 </wgt>
<wgt id='1370'> +7.6310932e+01 </wgt>
<wgt id='1371'> +7.6822181e+01 </wgt>
<wgt id='1372'> +7.6140330e+01 </wgt>
<wgt id='1373'> +7.4870878e+01 </wgt>
<wgt id='1374'> +7.6489696e+01 </wgt>
<wgt id='1375'> +7.6490787e+01 </wgt>
<wgt id='1376'> +7.6345155e+01 </wgt>
<wgt id='1377'> +7.6297550e+01 </wgt>
<wgt id='1378'> +7.6090839e+01 </wgt>
<wgt id='1379'> +7.4216151e+01 </wgt>
<wgt id='1380'> +7.4481332e+01 </wgt>
<wgt id='1381'> +7.3744857e+01 </wgt>
<wgt id='1382'> +7.5503804e+01 </wgt>
<wgt id='1383'> +8.0250778e+01 </wgt>
<wgt id='1384'> +7.9405178e+01 </wgt>
<wgt id='1385'> +9.1870092e+01 </wgt>
<wgt id='1386'> +9.1931429e+01 </wgt>
<wgt id='1387'> +9.1799514e+01 </wgt>
<wgt id='1388'> +9.1730296e+01 </wgt>
<wgt id='1389'> +9.2098808e+01 </wgt>
<wgt id='1390'> +9.1759618e+01 </wgt>
<wgt id='1391'> +9.1997176e+01 </wgt>
<wgt id='1392'> +9.1620764e+01 </wgt>
<wgt id='1393'> +9.2036945e+01 </wgt>
<wgt id='1394'> +9.1321685e+01 </wgt>
<wgt id='1395'> +9.2548452e+01 </wgt>
<wgt id='1396'> +9.3144870e+01 </wgt>
<wgt id='1397'> +9.1202689e+01 </wgt>
<wgt id='1398'> +9.1649961e+01 </wgt>
<wgt id='1399'> +9.2029605e+01 </wgt>
<wgt id='1400'> +9.2660491e+01 </wgt>
<wgt id='1401'> +9.1270270e+01 </wgt>
<wgt id='1402'> +9.1670245e+01 </wgt>
<wgt id='1403'> +9.1955555e+01 </wgt>
<wgt id='1404'> +9.1773047e+01 </wgt>
<wgt id='1405'> +9.1924719e+01 </wgt>
<wgt id='1406'> +9.2091930e+01 </wgt>
<wgt id='1407'> +9.1473789e+01 </wgt>
<wgt id='1408'> +9.1666278e+01 </wgt>
<wgt id='1409'> +9.2290189e+01 </wgt>
<wgt id='1410'> +9.1207086e+01 </wgt>
<wgt id='1411'> +9.3649465e+01 </wgt>
<wgt id='1412'> +9.2452422e+01 </wgt>
<wgt id='1413'> +9.1134706e+01 </wgt>
<wgt id='1414'> +9.1521916e+01 </wgt>
<wgt id='1415'> +9.2182167e+01 </wgt>
<wgt id='1416'> +9.1606440e+01 </wgt>
<wgt id='1417'> +9.1993949e+01 </wgt>
<wgt id='1418'> +9.1530999e+01 </wgt>
<wgt id='1419'> +9.2527870e+01 </wgt>
<wgt id='1420'> +9.2494083e+01 </wgt>
<wgt id='1421'> +9.2945340e+01 </wgt>
<wgt id='1422'> +9.2382829e+01 </wgt>
<wgt id='1423'> +9.1266491e+01 </wgt>
<wgt id='1424'> +9.2797711e+01 </wgt>
<wgt id='1425'> +9.0833878e+01 </wgt>
<wgt id='1426'> +9.2115884e+01 </wgt>
<wgt id='1427'> +9.1630021e+01 </wgt>
<wgt id='1428'> +9.2118244e+01 </wgt>
<wgt id='1429'> +9.2286967e+01 </wgt>
<wgt id='1430'> +9.2205357e+01 </wgt>
<wgt id='1431'> +9.1572318e+01 </wgt>
<wgt id='1432'> +9.1731902e+01 </wgt>
<wgt id='1433'> +9.1995209e+01 </wgt>
<wgt id='1434'> +9.1960564e+01 </wgt>
<wgt id='1435'> +9.1660073e+01 </wgt>
<wgt id='1436'> +7.9278388e+01 </wgt>
<wgt id='1437'> +7.9267214e+01 </wgt>
<wgt id='1438'> +7.9299258e+01 </wgt>
<wgt id='1439'> +7.9275762e+01 </wgt>
<wgt id='1440'> +7.9333357e+01 </wgt>
<wgt id='1441'> +7.9355918e+01 </wgt>
<wgt id='1442'> +7.9259021e+01 </wgt>
<wgt id='1443'> +7.9105146e+01 </wgt>
<wgt id='1444'> +7.9607199e+01 </wgt>
<wgt id='1445'> +7.8704144e+01 </wgt>
<wgt id='1446'> +7.9638743e+01 </wgt>
<wgt id='1447'> +7.9150820e+01 </wgt>
<wgt id='1448'> +7.9543099e+01 </wgt>
<wgt id='1449'> +7.9437928e+01 </wgt>
<wgt id='1450'> +7.9323114e+01 </wgt>
<wgt id='1451'> +7.9357273e+01 </wgt>
<wgt id='1452'> +7.9297810e+01 </wgt>
<wgt id='1453'> +7.9176645e+01 </wgt>
<wgt id='1454'> +7.9260797e+01 </wgt>
<wgt id='1455'> +7.9443813e+01 </wgt>
<wgt id='1456'> +7.9218390e+01 </wgt>
<wgt id='1457'> +7.9236002e+01 </wgt>
<wgt id='1458'> +7.9190536e+01 </wgt>
<wgt id='1459'> +7.8570384e+01 </wgt>
<wgt id='1460'> +7.9460983e+01 </wgt>
<wgt id='1461'> +7.8864207e+01 </wgt>
<wgt id='1462'> +7.8748720e+01 </wgt>
<wgt id='1463'> +8.0802674e+01 </wgt>
<wgt id='1464'> +7.9824354e+01 </wgt>
<wgt id='1465'> +7.5145719e+01 </wgt>
<wgt id='1466'> +7.7558592e+01 </wgt>
<wgt id='1467'> +7.7835822e+01 </wgt>
<wgt id='1468'> +7.7998758e+01 </wgt>
<wgt id='1469'> +7.7811345e+01 </wgt>
<wgt id='1470'> +7.7604396e+01 </wgt>
<wgt id='1471'> +7.7014389e+01 </wgt>
<wgt id='1472'> +7.7432144e+01 </wgt>
<wgt id='1473'> +7.7665405e+01 </wgt>
<wgt id='1474'> +7.8847439e+01 </wgt>
<wgt id='1475'> +7.7485138e+01 </wgt>
<wgt id='1476'> +7.8324399e+01 </wgt>
<wgt id='1477'> +7.7780159e+01 </wgt>
<wgt id='1478'> +7.7297425e+01 </wgt>
<wgt id='1479'> +7.6676671e+01 </wgt>
<wgt id='1480'> +7.7868281e+01 </wgt>
<wgt id='1481'> +7.7406668e+01 </wgt>
<wgt id='1482'> +7.7709332e+01 </wgt>
<wgt id='1483'> +7.7634251e+01 </wgt>
<wgt id='1484'> +7.7716070e+01 </wgt>
<wgt id='1485'> +7.7508032e+01 </wgt>
<wgt id='1486'> +7.8330740e+01 </wgt>
<wgt id='1487'> +7.7292707e+01 </wgt>
<wgt id='1488'> +7.7236944e+01 </wgt>
<wgt id='1489'> +7.8619871e+01 </wgt>
<wgt id='1490'> +7.7038467e+01 </wgt>
<wgt id='1491'> +7.6711833e+01 </wgt>
<wgt id='1492'> +7.7142409e+01 </wgt>
<wgt id='1493'> +7.7971130e+01 </wgt>
<wgt id='1494'> +7.7334309e+01 </wgt>
<wgt id='1495'> +7.7155245e+01 </wgt>
<wgt id='1496'> +7.7613387e+01 </wgt>
<wgt id='1497'> +7.7188680e+01 </wgt>
<wgt id='1498'> +7.7916029e+01 </wgt>
<wgt id='1499'> +7.7499325e+01 </wgt>
<wgt id='1500'> +7.7049842e+01 </wgt>
<wgt id='1501'> +7.8245543e+01 </wgt>
<wgt id='1502'> +7.7476077e+01 </wgt>
<wgt id='1503'> +7.7464181e+01 </wgt>
<wgt id='1504'> +7.7181287e+01 </wgt>
<wgt id='1505'> +7.7315706e+01 </wgt>
<wgt id='1506'> +7.7181147e+01 </wgt>
<wgt id='1507'> +7.7891087e+01 </wgt>
<wgt id='1508'> +7.7258716e+01 </wgt>
<wgt id='1509'> +7.7438964e+01 </wgt>
<wgt id='1510'> +7.7957744e+01 </wgt>
<wgt id='1511'> +7.7194035e+01 </wgt>
<wgt id='1512'> +7.7981873e+01 </wgt>
<wgt id='1513'> +7.7310474e+01 </wgt>
<wgt id='1514'> +7.7740500e+01 </wgt>
<wgt id='1515'> +7.7470226e+01 </wgt>
<wgt id='1516'> +7.7302409e+01 </wgt>
<wgt id='1517'> +7.7618906e+01 </wgt>
<wgt id='1518'> +7.7490593e+01 </wgt>
<wgt id='1519'> +7.7301469e+01 </wgt>
<wgt id='1520'> +7.7787517e+01 </wgt>
<wgt id='1521'> +7.7516113e+01 </wgt>
<wgt id='1522'> +7.7536166e+01 </wgt>
<wgt id='1523'> +7.7558739e+01 </wgt>
<wgt id='1524'> +7.7745380e+01 </wgt>
<wgt id='1525'> +7.7556740e+01 </wgt>
<wgt id='1526'> +7.7446492e+01 </wgt>
<wgt id='1527'> +7.7614786e+01 </wgt>
<wgt id='1528'> +7.7595804e+01 </wgt>
<wgt id='1529'> +7.7490620e+01 </wgt>
<wgt id='1530'> +7.7594041e+01 </wgt>
<wgt id='1531'> +7.7581511e+01 </wgt>
<wgt id='1532'> +7.7567561e+01 </wgt>
<wgt id='1533'> +7.7583530e+01 </wgt>
<wgt id='1534'> +7.7505287e+01 </wgt>
<wgt id='1535'> +7.7521896e+01 </wgt>
<wgt id='1536'> +7.7561359e+01 </wgt>
<wgt id='1537'> +7.7506120e+01 </wgt>
<wgt id='1538'> +7.7465199e+01 </wgt>
<wgt id='1539'> +7.7501355e+01 </wgt>
<wgt id='1540'> +7.7467752e+01 </wgt>
<wgt id='1541'> +7.7616911e+01 </wgt>
<wgt id='1542'> +7.7523977e+01 </wgt>
<wgt id='1543'> +7.7478768e+01 </wgt>
<wgt id='1544'> +7.7567849e+01 </wgt>
<wgt id='1545'> +7.7595909e+01 </wgt>
<wgt id='1546'> +7.7549689e+01 </wgt>
<wgt id='1547'> +7.7537923e+01 </wgt>
<wgt id='1548'> +7.7506405e+01 </wgt>
<wgt id='1549'> +7.7661382e+01 </wgt>
<wgt id='1550'> +7.7589778e+01 </wgt>
<wgt id='1551'> +7.7563945e+01 </wgt>
<wgt id='1552'> +7.7588770e+01 </wgt>
<wgt id='1553'> +7.7567836e+01 </wgt>
<wgt id='1554'> +7.7577862e+01 </wgt>
<wgt id='1555'> +7.7579804e+01 </wgt>
<wgt id='1556'> +7.7558405e+01 </wgt>
<wgt id='1557'> +7.7523145e+01 </wgt>
<wgt id='1558'> +7.7549400e+01 </wgt>
<wgt id='1559'> +7.7535447e+01 </wgt>
<wgt id='1560'> +7.7574499e+01 </wgt>
<wgt id='1561'> +7.7569456e+01 </wgt>
<wgt id='1562'> +7.7536644e+01 </wgt>
<wgt id='1563'> +7.7580291e+01 </wgt>
<wgt id='1564'> +7.7594658e+01 </wgt>
<wgt id='1565'> +7.7586152e+01 </wgt>
<wgt id='1566'> +7.7544007e+01 </wgt>
<wgt id='1567'> +7.7404003e+01 </wgt>
<wgt id='1568'> +7.7329597e+01 </wgt>
<wgt id='1569'> +7.6365425e+01 </wgt>
<wgt id='1570'> +7.7082870e+01 </wgt>
<wgt id='1571'> +7.6725883e+01 </wgt>
<wgt id='1572'> +7.5734689e+01 </wgt>
<wgt id='1573'> +7.6431360e+01 </wgt>
<wgt id='1574'> +7.6511190e+01 </wgt>
<wgt id='1575'> +7.5907717e+01 </wgt>
<wgt id='1576'> +7.6209440e+01 </wgt>
<wgt id='1577'> +7.6436873e+01 </wgt>
<wgt id='1578'> +7.5979267e+01 </wgt>
<wgt id='1579'> +7.6361335e+01 </wgt>
<wgt id='1580'> +7.6272056e+01 </wgt>
<wgt id='1581'> +7.5791429e+01 </wgt>
<wgt id='1582'> +7.5613223e+01 </wgt>
<wgt id='1583'> +7.6156971e+01 </wgt>
<wgt id='1584'> +7.7582767e+01 </wgt>
<wgt id='1585'> +7.5690466e+01 </wgt>
<wgt id='1586'> +7.6698993e+01 </wgt>
<wgt id='1587'> +7.6498132e+01 </wgt>
<wgt id='1588'> +7.5717314e+01 </wgt>
<wgt id='1589'> +7.6174729e+01 </wgt>
<wgt id='1590'> +7.6968917e+01 </wgt>
<wgt id='1591'> +7.5746720e+01 </wgt>
<wgt id='1592'> +7.6543558e+01 </wgt>
<wgt id='1593'> +7.7201500e+01 </wgt>
<wgt id='1594'> +7.6737215e+01 </wgt>
<wgt id='1595'> +7.6576559e+01 </wgt>
<wgt id='1596'> +7.6047567e+01 </wgt>
<wgt id='1597'> +7.5940526e+01 </wgt>
<wgt id='1598'> +7.6171610e+01 </wgt>
<wgt id='1599'> +7.6638871e+01 </wgt>
<wgt id='1600'> +7.5573898e+01 </wgt>
<wgt id='1601'> +7.6920432e+01 </wgt>
<wgt id='1602'> +7.6247434e+01 </wgt>
<wgt id='1603'> +7.6025690e+01 </wgt>
<wgt id='1604'> +7.6585868e+01 </wgt>
<wgt id='1605'> +7.6318812e+01 </wgt>
<wgt id='1606'> +7.6741522e+01 </wgt>
<wgt id='1607'> +7.6783442e+01 </wgt>
<wgt id='1608'> +7.6896304e+01 </wgt>
<wgt id='1609'> +7.6732231e+01 </wgt>
<wgt id='1610'> +7.6153319e+01 </wgt>
<wgt id='1611'> +7.6375505e+01 </wgt>
<wgt id='1612'> +7.6279385e+01 </wgt>
<wgt id='1613'> +7.6141354e+01 </wgt>
<wgt id='1614'> +7.6457385e+01 </wgt>
<wgt id='1615'> +7.5952178e+01 </wgt>
<wgt id='1616'> +7.6892958e+01 </wgt>
<wgt id='1617'> +7.6699815e+01 </wgt>
<wgt id='1618'> +7.6184557e+01 </wgt>
<wgt id='1619'> +7.6161116e+01 </wgt>
<wgt id='1620'> +7.6295101e+01 </wgt>
<wgt id='1621'> +7.6374240e+01 </wgt>
<wgt id='1622'> +7.6595310e+01 </wgt>
<wgt id='1623'> +7.6250243e+01 </wgt>
<wgt id='1624'> +7.6257501e+01 </wgt>
<wgt id='1625'> +7.6390028e+01 </wgt>
<wgt id='1626'> +7.6388117e+01 </wgt>
<wgt id='1627'> +7.6125514e+01 </wgt>
<wgt id='1628'> +7.6344946e+01 </wgt>
<wgt id='1629'> +7.6461787e+01 </wgt>
<wgt id='1630'> +7.6309083e+01 </wgt>
<wgt id='1631'> +7.6548186e+01 </wgt>
<wgt id='1632'> +7.6265456e+01 </wgt>
<wgt id='1633'> +7.6383019e+01 </wgt>
<wgt id='1634'> +7.6310575e+01 </wgt>
<wgt id='1635'> +7.6316936e+01 </wgt>
<wgt id='1636'> +7.6455644e+01 </wgt>
<wgt id='1637'> +7.6371939e+01 </wgt>
<wgt id='1638'> +7.6451555e+01 </wgt>
<wgt id='1639'> +7.6311886e+01 </wgt>
<wgt id='1640'> +7.6518800e+01 </wgt>
<wgt id='1641'> +7.6292896e+01 </wgt>
<wgt id='1642'> +7.6314559e+01 </wgt>
<wgt id='1643'> +7.6356514e+01 </wgt>
<wgt id='1644'> +7.6385319e+01 </wgt>
<wgt id='1645'> +7.6346763e+01 </wgt>
<wgt id='1646'> +7.6402690e+01 </wgt>
<wgt id='1647'> +7.6428906e+01 </wgt>
<wgt id='1648'> +7.6426006e+01 </wgt>
<wgt id='1649'> +7.6409001e+01 </wgt>
<wgt id='1650'> +7.6393273e+01 </wgt>
<wgt id='1651'> +7.6368566e+01 </wgt>
<wgt id='1652'> +7.6368633e+01 </wgt>
<wgt id='1653'> +7.6350310e+01 </wgt>
<wgt id='1654'> +7.6334125e+01 </wgt>
<wgt id='1655'> +7.6397781e+01 </wgt>
<wgt id='1656'> +7.6307400e+01 </wgt>
<wgt id='1657'> +7.6323897e+01 </wgt>
<wgt id='1658'> +7.6320471e+01 </wgt>
<wgt id='1659'> +7.6418383e+01 </wgt>
<wgt id='1660'> +7.6345669e+01 </wgt>
<wgt id='1661'> +7.6333762e+01 </wgt>
<wgt id='1662'> +7.6403622e+01 </wgt>
<wgt id='1663'> +7.6343170e+01 </wgt>
<wgt id='1664'> +7.6390428e+01 </wgt>
<wgt id='1665'> +7.6355552e+01 </wgt>
<wgt id='1666'> +7.6369360e+01 </wgt>
<wgt id='1667'> +7.6364514e+01 </wgt>
<wgt id='1668'> +7.6378843e+01 </wgt>
<wgt id='1669'> +7.6366483e+01 </wgt>
<wgt id='1670'> +7.6369634e+01 </wgt>
<wgt id='1671'> +7.5948089e+01 </wgt>
<wgt id='1672'> +7.7562254e+01 </wgt>
<wgt id='1673'> +7.8315236e+01 </wgt>
<wgt id='1674'> +7.7991115e+01 </wgt>
<wgt id='1675'> +7.7601918e+01 </wgt>
<wgt id='1676'> +7.8337219e+01 </wgt>
<wgt id='1677'> +7.8753596e+01 </wgt>
<wgt id='1678'> +8.0037488e+01 </wgt>
<wgt id='1679'> +7.7467710e+01 </wgt>
<wgt id='1680'> +7.7481236e+01 </wgt>
<wgt id='1681'> +7.7429846e+01 </wgt>
<wgt id='1682'> +7.7490099e+01 </wgt>
<wgt id='1683'> +7.7531276e+01 </wgt>
<wgt id='1684'> +7.7201272e+01 </wgt>
<wgt id='1685'> +7.7502349e+01 </wgt>
<wgt id='1686'> +7.7712315e+01 </wgt>
<wgt id='1687'> +7.7439273e+01 </wgt>
<wgt id='1688'> +7.7548192e+01 </wgt>
<wgt id='1689'> +7.7366581e+01 </wgt>
<wgt id='1690'> +7.7059207e+01 </wgt>
<wgt id='1691'> +7.7399498e+01 </wgt>
<wgt id='1692'> +7.7534614e+01 </wgt>
<wgt id='1693'> +7.7569903e+01 </wgt>
<wgt id='1694'> +7.7640209e+01 </wgt>
<wgt id='1695'> +7.7559530e+01 </wgt>
<wgt id='1696'> +7.7682569e+01 </wgt>
<wgt id='1697'> +7.7577760e+01 </wgt>
<wgt id='1698'> +7.7698190e+01 </wgt>
<wgt id='1699'> +7.7536666e+01 </wgt>
<wgt id='1700'> +7.7592478e+01 </wgt>
<wgt id='1701'> +7.7615628e+01 </wgt>
<wgt id='1702'> +7.7518950e+01 </wgt>
<wgt id='1703'> +7.7404003e+01 </wgt>
<wgt id='1704'> +7.7329597e+01 </wgt>
<wgt id='1705'> +7.6365503e+01 </wgt>
<wgt id='1706'> +7.7424707e+01 </wgt>
<wgt id='1707'> +7.7269021e+01 </wgt>
<wgt id='1708'> +7.6338649e+01 </wgt>
<wgt id='1709'> +7.6862023e+01 </wgt>
<wgt id='1710'> +7.5786701e+01 </wgt>
<wgt id='1711'> +7.6396348e+01 </wgt>
<wgt id='1712'> +7.6152216e+01 </wgt>
<wgt id='1713'> +7.7382666e+01 </wgt>
<wgt id='1714'> +7.5388223e+01 </wgt>
<wgt id='1715'> +7.6398735e+01 </wgt>
<wgt id='1716'> +7.6174795e+01 </wgt>
<wgt id='1717'> +7.6419648e+01 </wgt>
<wgt id='1718'> +7.6712549e+01 </wgt>
<wgt id='1719'> +7.6397631e+01 </wgt>
<wgt id='1720'> +7.6838040e+01 </wgt>
<wgt id='1721'> +7.6702837e+01 </wgt>
<wgt id='1722'> +7.5980337e+01 </wgt>
<wgt id='1723'> +7.6408254e+01 </wgt>
<wgt id='1724'> +7.6537747e+01 </wgt>
<wgt id='1725'> +7.5910003e+01 </wgt>
<wgt id='1726'> +7.5755476e+01 </wgt>
<wgt id='1727'> +7.6905231e+01 </wgt>
<wgt id='1728'> +7.6295108e+01 </wgt>
<wgt id='1729'> +7.6264728e+01 </wgt>
<wgt id='1730'> +7.6124261e+01 </wgt>
<wgt id='1731'> +7.5991088e+01 </wgt>
<wgt id='1732'> +7.6498013e+01 </wgt>
<wgt id='1733'> +7.5710041e+01 </wgt>
<wgt id='1734'> +7.6779934e+01 </wgt>
<wgt id='1735'> +7.6182318e+01 </wgt>
<wgt id='1736'> +7.6369634e+01 </wgt>
<wgt id='1737'> +7.5948089e+01 </wgt>
<wgt id='1738'> +8.1139023e+01 </wgt>
<wgt id='1739'> +8.1109557e+01 </wgt>
<wgt id='1740'> +8.1168258e+01 </wgt>
<wgt id='1741'> +8.1175491e+01 </wgt>
<wgt id='1742'> +8.1102390e+01 </wgt>
<wgt id='1743'> +8.1173746e+01 </wgt>
<wgt id='1744'> +8.1104264e+01 </wgt>
<wgt id='1745'> +8.1111133e+01 </wgt>
<wgt id='1746'> +8.1168433e+01 </wgt>
<wgt id='1747'> +7.9159263e+01 </wgt>
<wgt id='1748'> +8.3117338e+01 </wgt>
<wgt id='1749'> +8.1960303e+01 </wgt>
<wgt id='1750'> +8.0321661e+01 </wgt>
<wgt id='1751'> +8.1248405e+01 </wgt>
<wgt id='1752'> +8.1029912e+01 </wgt>
<wgt id='1753'> +8.0798381e+01 </wgt>
<wgt id='1754'> +8.1428429e+01 </wgt>
<wgt id='1755'> +8.0386503e+01 </wgt>
<wgt id='1756'> +8.1873789e+01 </wgt>
<wgt id='1757'> +8.0541746e+01 </wgt>
<wgt id='1758'> +8.1639476e+01 </wgt>
<wgt id='1759'> +8.0407371e+01 </wgt>
<wgt id='1760'> +8.1812003e+01 </wgt>
<wgt id='1761'> +7.9250250e+01 </wgt>
<wgt id='1762'> +8.3150005e+01 </wgt>
<wgt id='1763'> +8.2521382e+01 </wgt>
<wgt id='1764'> +7.9793828e+01 </wgt>
<wgt id='1765'> +8.0172247e+01 </wgt>
<wgt id='1766'> +8.2187711e+01 </wgt>
<wgt id='1767'> +8.1139023e+01 </wgt>
<wgt id='1768'> +8.1628630e+01 </wgt>
<wgt id='1769'> +8.0130893e+01 </wgt>
<wgt id='1770'> +8.5365210e+01 </wgt>
<wgt id='1771'> +8.4534666e+01 </wgt>
<wgt id='1772'> +8.1562132e+01 </wgt>
<wgt id='1773'> +8.0197507e+01 </wgt>
<wgt id='1774'> +8.0617229e+01 </wgt>
<wgt id='1775'> +8.0894762e+01 </wgt>
<wgt id='1776'> +8.0626984e+01 </wgt>
<wgt id='1777'> +8.0907972e+01 </wgt>
<wgt id='1778'> +8.0521531e+01 </wgt>
<wgt id='1779'> +8.0969713e+01 </wgt>
<wgt id='1780'> +8.6431343e+01 </wgt>
<wgt id='1781'> +8.3236028e+01 </wgt>
<wgt id='1782'> +8.2808927e+01 </wgt>
<wgt id='1783'> +8.2855496e+01 </wgt>
<wgt id='1784'> +8.2863568e+01 </wgt>
<wgt id='1785'> +8.2801028e+01 </wgt>
<wgt id='1786'> +8.2887060e+01 </wgt>
<wgt id='1787'> +8.2777438e+01 </wgt>
<wgt id='1788'> +8.2922544e+01 </wgt>
<wgt id='1789'> +8.2745020e+01 </wgt>
<wgt id='1790'> +8.2429934e+01 </wgt>
<wgt id='1791'> +8.3236707e+01 </wgt>
<wgt id='1792'> +8.0821958e+01 </wgt>
<wgt id='1793'> +8.4839132e+01 </wgt>
<wgt id='1794'> +8.3255773e+01 </wgt>
<wgt id='1795'> +8.2407237e+01 </wgt>
<wgt id='1796'> +8.2673523e+01 </wgt>
<wgt id='1797'> +8.2963811e+01 </wgt>
<wgt id='1798'> +8.3234739e+01 </wgt>
<wgt id='1799'> +8.2419641e+01 </wgt>
<wgt id='1800'> +8.2080821e+01 </wgt>
<wgt id='1801'> +8.3495107e+01 </wgt>
<wgt id='1802'> +8.2652771e+01 </wgt>
<wgt id='1803'> +8.2964659e+01 </wgt>
<wgt id='1804'> +8.3828223e+01 </wgt>
<wgt id='1805'> +8.1902004e+01 </wgt>
<wgt id='1806'> +8.2476118e+01 </wgt>
<wgt id='1807'> +8.3383051e+01 </wgt>
<wgt id='1808'> +8.1672084e+01 </wgt>
<wgt id='1809'> +8.4137732e+01 </wgt>
<wgt id='1810'> +8.3220129e+01 </wgt>
<wgt id='1811'> +8.3243189e+01 </wgt>
<wgt id='1812'> +8.3341509e+01 </wgt>
<wgt id='1813'> +8.4644202e+01 </wgt>
<wgt id='1814'> +8.3665323e+01 </wgt>
<wgt id='1815'> +8.5094909e+01 </wgt>
<wgt id='1816'> +8.0556363e+01 </wgt>
<wgt id='1817'> +8.2696894e+01 </wgt>
<wgt id='1818'> +8.3283670e+01 </wgt>
<wgt id='1819'> +8.0406522e+01 </wgt>
<wgt id='1820'> +8.4497561e+01 </wgt>
<wgt id='1821'> +7.9864499e+01 </wgt>
<wgt id='1822'> +8.4348989e+01 </wgt>
<wgt id='1823'> +8.0749048e+01 </wgt>
<wgt id='1824'> +7.5854779e+01 </wgt>
<wgt id='1825'> +7.5843903e+01 </wgt>
<wgt id='1826'> +7.5832935e+01 </wgt>
<wgt id='1827'> +7.5821891e+01 </wgt>
<wgt id='1828'> +7.5811105e+01 </wgt>
<wgt id='1829'> +7.5800140e+01 </wgt>
<wgt id='1830'> +7.5789275e+01 </wgt>
<wgt id='1831'> +7.5778341e+01 </wgt>
<wgt id='1832'> +7.5767512e+01 </wgt>
<wgt id='1833'> +7.5756468e+01 </wgt>
<wgt id='1834'> +7.5745558e+01 </wgt>
<wgt id='1835'> +7.5734411e+01 </wgt>
<wgt id='1836'> +7.5723460e+01 </wgt>
<wgt id='1837'> +7.5712587e+01 </wgt>
<wgt id='1838'> +7.5701593e+01 </wgt>
<wgt id='1839'> +7.5690814e+01 </wgt>
<wgt id='1840'> +7.5679863e+01 </wgt>
<wgt id='1841'> +7.5668865e+01 </wgt>
<wgt id='1842'> +7.5657995e+01 </wgt>
<wgt id='1843'> +7.5647059e+01 </wgt>
<wgt id='1844'> +7.5636231e+01 </wgt>
<wgt id='1845'> +7.5625318e+01 </wgt>
<wgt id='1846'> +7.5614373e+01 </wgt>
<wgt id='1847'> +7.5603250e+01 </wgt>
<wgt id='1848'> +7.5592207e+01 </wgt>
<wgt id='1849'> +7.5581397e+01 </wgt>
<wgt id='1850'> +7.5570480e+01 </wgt>
<wgt id='1851'> +7.5559662e+01 </wgt>
<wgt id='1852'> +7.5548711e+01 </wgt>
<wgt id='1853'> +7.5537720e+01 </wgt>
<wgt id='1854'> +7.5526919e+01 </wgt>
<wgt id='1855'> +7.5786180e+01 </wgt>
<wgt id='1856'> +7.6498726e+01 </wgt>
<wgt id='1857'> +7.6142337e+01 </wgt>
<wgt id='1858'> +7.5162239e+01 </wgt>
<wgt id='1859'> +7.5853120e+01 </wgt>
<wgt id='1860'> +7.5932296e+01 </wgt>
<wgt id='1861'> +7.5333940e+01 </wgt>
<wgt id='1862'> +7.5630742e+01 </wgt>
<wgt id='1863'> +7.5856731e+01 </wgt>
<wgt id='1864'> +7.5403212e+01 </wgt>
<wgt id='1865'> +7.5782691e+01 </wgt>
<wgt id='1866'> +7.5694485e+01 </wgt>
<wgt id='1867'> +7.5217643e+01 </wgt>
<wgt id='1868'> +7.5041082e+01 </wgt>
<wgt id='1869'> +7.5577622e+01 </wgt>
<wgt id='1870'> +7.6991608e+01 </wgt>
<wgt id='1871'> +7.5117055e+01 </wgt>
<wgt id='1872'> +7.6117883e+01 </wgt>
<wgt id='1873'> +7.5917958e+01 </wgt>
<wgt id='1874'> +7.5143714e+01 </wgt>
<wgt id='1875'> +7.5598315e+01 </wgt>
<wgt id='1876'> +7.6382397e+01 </wgt>
<wgt id='1877'> +7.5173195e+01 </wgt>
<wgt id='1878'> +7.5960839e+01 </wgt>
<wgt id='1879'> +7.6614834e+01 </wgt>
<wgt id='1880'> +7.6155788e+01 </wgt>
<wgt id='1881'> +7.5995239e+01 </wgt>
<wgt id='1882'> +7.5470253e+01 </wgt>
<wgt id='1883'> +7.5365333e+01 </wgt>
<wgt id='1884'> +7.5593682e+01 </wgt>
<wgt id='1885'> +7.6057860e+01 </wgt>
<wgt id='1886'> +7.4999757e+01 </wgt>
<wgt id='1887'> +7.6337342e+01 </wgt>
<wgt id='1888'> +7.5669669e+01 </wgt>
<wgt id='1889'> +7.5447374e+01 </wgt>
<wgt id='1890'> +7.6006280e+01 </wgt>
<wgt id='1891'> +7.5740384e+01 </wgt>
<wgt id='1892'> +7.6159320e+01 </wgt>
<wgt id='1893'> +7.6201341e+01 </wgt>
<wgt id='1894'> +7.6313701e+01 </wgt>
<wgt id='1895'> +7.6151383e+01 </wgt>
<wgt id='1896'> +7.5574482e+01 </wgt>
<wgt id='1897'> +7.5796982e+01 </wgt>
<wgt id='1898'> +7.5701197e+01 </wgt>
<wgt id='1899'> +7.5565253e+01 </wgt>
<wgt id='1900'> +7.5876280e+01 </wgt>
<wgt id='1901'> +7.5376652e+01 </wgt>
<wgt id='1902'> +7.6308710e+01 </wgt>
<wgt id='1903'> +7.6118718e+01 </wgt>
<wgt id='1904'> +7.5605563e+01 </wgt>
<wgt id='1905'> +7.5583355e+01 </wgt>
<wgt id='1906'> +7.5716965e+01 </wgt>
<wgt id='1907'> +7.5795762e+01 </wgt>
<wgt id='1908'> +7.6014809e+01 </wgt>
<wgt id='1909'> +7.5671935e+01 </wgt>
<wgt id='1910'> +7.5678450e+01 </wgt>
<wgt id='1911'> +7.5810311e+01 </wgt>
<wgt id='1912'> +7.5808319e+01 </wgt>
<wgt id='1913'> +7.5547864e+01 </wgt>
<wgt id='1914'> +7.5766586e+01 </wgt>
<wgt id='1915'> +7.5881803e+01 </wgt>
<wgt id='1916'> +7.5730105e+01 </wgt>
<wgt id='1917'> +7.5967320e+01 </wgt>
<wgt id='1918'> +7.5687546e+01 </wgt>
<wgt id='1919'> +7.5803747e+01 </wgt>
<wgt id='1920'> +7.5731611e+01 </wgt>
<wgt id='1921'> +7.5737726e+01 </wgt>
<wgt id='1922'> +7.5874966e+01 </wgt>
<wgt id='1923'> +7.5792281e+01 </wgt>
<wgt id='1924'> +7.5871668e+01 </wgt>
<wgt id='1925'> +7.5733563e+01 </wgt>
<wgt id='1926'> +7.5938934e+01 </wgt>
<wgt id='1927'> +7.5714703e+01 </wgt>
<wgt id='1928'> +7.5735713e+01 </wgt>
<wgt id='1929'> +7.5777873e+01 </wgt>
<wgt id='1930'> +7.5805632e+01 </wgt>
<wgt id='1931'> +7.5768126e+01 </wgt>
<wgt id='1932'> +7.5823479e+01 </wgt>
<wgt id='1933'> +7.5849125e+01 </wgt>
<wgt id='1934'> +7.5845537e+01 </wgt>
<wgt id='1935'> +7.5829171e+01 </wgt>
<wgt id='1936'> +7.5814252e+01 </wgt>
<wgt id='1937'> +7.5789221e+01 </wgt>
<wgt id='1938'> +7.5789454e+01 </wgt>
<wgt id='1939'> +7.5770338e+01 </wgt>
<wgt id='1940'> +7.5755200e+01 </wgt>
<wgt id='1941'> +7.5818143e+01 </wgt>
<wgt id='1942'> +7.5728307e+01 </wgt>
<wgt id='1943'> +7.5744998e+01 </wgt>
<wgt id='1944'> +7.5741734e+01 </wgt>
<wgt id='1945'> +7.5838608e+01 </wgt>
<wgt id='1946'> +7.5766603e+01 </wgt>
<wgt id='1947'> +7.5755106e+01 </wgt>
<wgt id='1948'> +7.5823724e+01 </wgt>
<wgt id='1949'> +7.5764328e+01 </wgt>
<wgt id='1950'> +7.5810597e+01 </wgt>
<wgt id='1951'> +7.5775598e+01 </wgt>
<wgt id='1952'> +7.5790024e+01 </wgt>
<wgt id='1953'> +7.5785294e+01 </wgt>
<wgt id='1954'> +7.5799304e+01 </wgt>
<wgt id='1955'> +7.5787158e+01 </wgt>
<wgt id='1956'> +7.5785739e+01 </wgt>
<wgt id='1957'> +7.5788603e+01 </wgt>
<wgt id='1958'> +7.5786645e+01 </wgt>
<wgt id='1959'> +7.5786724e+01 </wgt>
<wgt id='1960'> +7.5787540e+01 </wgt>
<wgt id='1961'> +7.5786380e+01 </wgt>
<wgt id='1962'> +7.5789126e+01 </wgt>
</rwgt>
</event>
<event npLO=" -1 " npNLO=" 0 ">
 6      0 +1.5146096e+02 3.22568070e+01 7.54677110e-03 1.16890380e-01
       -5 -1    0    0    0  501 +0.0000000000e+00 +0.0000000000e+00 +3.2118008000e+02 3.2118008000e+02 0.0000000000e+00 0.0000e+00 9.0000e+00
        5 -1    0    0  501    0 +0.0000000000e+00 +0.0000000000e+00 -7.3425823000e+00 7.3425823000e+00 0.0000000000e+00 0.0000e+00 9.0000e+00
       23  2    1    2    0    0 +3.5527137000e-15 -8.8817842000e-16 +3.1383750000e+02 3.2852266000e+02 9.7124480000e+01 0.0000e+00 0.0000e+00
       15  1    3    3    0    0 -1.4978219000e+01 -6.4906415000e+00 +8.3258162000e+00 1.8410660000e+01 1.7770000000e+00 0.0000e+00 9.0000e+00
      -15  1    3    3    0    0 -9.7055879000e+00 -1.3226269000e+01 +1.7727018000e+02 1.7803653000e+02 1.7770000000e+00 0.0000e+00 9.0000e+00
       22  1    3    3    0    0 +2.4683806000e+01 +1.9716911000e+01 +1.2824150000e+02 1.3207547000e+02 0.0000000000e+00 0.0000e+00 9.0000e+00
#aMCatNLO 1  0  0  2  1 0.78071787E+02 0.00000000E+00 -9  6  0 0.00000000E+00 0.00000000E+00 0.00000000E+00 0.00000000E+00 0.00000000E+00
<rwgt>
<wgt id='1001'> +1.5146000e+02 </wgt>
<wgt id='1002'> +1.5146000e+02 </wgt>
<wgt id='1003'> +1.4322000e+02 </wgt>
<wgt id='1004'> +1.5098000e+02 </wgt>
<wgt id='1005'> +1.5527000e+02 </wgt>
<wgt id='1006'> +1.4709000e+02 </wgt>
<wgt id='1007'> +1.4329000e+02 </wgt>
<wgt id='1008'> +1.5493000e+02 </wgt>
<wgt id='1009'> +1.5119000e+02 </wgt>
<wgt id='1010'> +1.5192000e+02 </wgt>
<wgt id='1011'> +1.5381000e+02 </wgt>
<wgt id='1012'> +1.5076000e+02 </wgt>
<wgt id='1013'> +1.4899000e+02 </wgt>
<wgt id='1014'> +1.5327000e+02 </wgt>
<wgt id='1015'> +1.5207000e+02 </wgt>
<wgt id='1016'> +1.5405000e+02 </wgt>
<wgt id='1017'> +1.5499000e+02 </wgt>
<wgt id='1018'> +1.5189000e+02 </wgt>
<wgt id='1019'> +1.5266000e+02 </wgt>
<wgt id='1020'> +1.5075000e+02 </wgt>
<wgt id='1021'> +1.5253000e+02 </wgt>
<wgt id='1022'> +1.5523000e+02 </wgt>
<wgt id='1023'> +1.5349000e+02 </wgt>
<wgt id='1024'> +1.5125000e+02 </wgt>
<wgt id='1025'> +1.5952000e+02 </wgt>
<wgt id='1026'> +1.5266000e+02 </wgt>
<wgt id='1027'> +1.5086000e+02 </wgt>
<wgt id='1028'> +1.5017000e+02 </wgt>
<wgt id='1029'> +1.4990000e+02 </wgt>
<wgt id='1030'> +1.5164000e+02 </wgt>
<wgt id='1031'> +1.5428000e+02 </wgt>
<wgt id='1032'> +1.5545000e+02 </wgt>
<wgt id='1033'> +1.5174000e+02 </wgt>
<wgt id='1034'> +1.4862000e+02 </wgt>
<wgt id='1035'> +1.4801000e+02 </wgt>
<wgt id='1036'> +1.5250000e+02 </wgt>
<wgt id='1037'> +1.5477000e+02 </wgt>
<wgt id='1038'> +1.4929000e+02 </wgt>
<wgt id='1039'> +1.5498000e+02 </wgt>
<wgt id='1040'> +1.4947000e+02 </wgt>
<wgt id='1041'> +1.4805000e+02 </wgt>
<wgt id='1042'> +1.5083000e+02 </wgt>
<wgt id='1043'> +1.5070000e+02 </wgt>
<wgt id='1044'> +1.5003000e+02 </wgt>
<wgt id='1045'> +1.5102000e+02 </wgt>
<wgt id='1046'> +1.5277000e+02 </wgt>
<wgt id='1047'> +1.5272000e+02 </wgt>
<wgt id='1048'> +1.5324000e+02 </wgt>
<wgt id='1049'> +1.4969000e+02 </wgt>
<wgt id='1050'> +1.5071000e+02 </wgt>
<wgt id='1051'> +1.4988000e+02 </wgt>
<wgt id='1052'> +1.5045000e+02 </wgt>
<wgt id='1053'> +1.5125000e+02 </wgt>
<wgt id='1054'> +1.5004000e+02 </wgt>
<wgt id='1055'> +1.5341000e+02 </wgt>
<wgt id='1056'> +1.5050000e+02 </wgt>
<wgt id='1057'> +1.4895000e+02 </wgt>
<wgt id='1058'> +1.5191000e+02 </wgt>
<wgt id='1059'> +1.5034000e+02 </wgt>
<wgt id='1060'> +1.5083000e+02 </wgt>
<wgt id='1061'> +1.5573000e+02 </wgt>
<wgt id='1062'> +1.5021000e+02 </wgt>
<wgt id='1063'> +1.4994000e+02 </wgt>
<wgt id='1064'> +1.5371000e+02 </wgt>
<wgt id='1065'> +1.4989000e+02 </wgt>
<wgt id='1066'> +1.5038000e+02 </wgt>
<wgt id='1067'> +1.4985000e+02 </wgt>
<wgt id='1068'> +1.5336000e+02 </wgt>
<wgt id='1069'> +1.5933000e+02 </wgt>
<wgt id='1070'> +1.5105000e+02 </wgt>
<wgt id='1071'> +1.4660000e+02 </wgt>
<wgt id='1072'> +1.4974000e+02 </wgt>
<wgt id='1073'> +1.4898000e+02 </wgt>
<wgt id='1074'> +1.5333000e+02 </wgt>
<wgt id='1075'> +1.4305000e+02 </wgt>
<wgt id='1076'> +1.5488000e+02 </wgt>
<wgt id='1077'> +1.4987000e+02 </wgt>
<wgt id='1078'> +1.5118000e+02 </wgt>
<wgt id='1079'> +1.5260000e+02 </wgt>
<wgt id='1080'> +1.5300000e+02 </wgt>
<wgt id='1081'> +1.4865000e+02 </wgt>
<wgt id='1082'> +1.5062000e+02 </wgt>
<wgt id='1083'> +1.5292000e+02 </wgt>
<wgt id='1084'> +1.4834000e+02 </wgt>
<wgt id='1085'> +1.5487000e+02 </wgt>
<wgt id='1086'> +1.5055000e+02 </wgt>
<wgt id='1087'> +1.5088000e+02 </wgt>
<wgt id='1088'> +1.5091000e+02 </wgt>
<wgt id='1089'> +1.5390000e+02 </wgt>
<wgt id='1090'> +1.5043000e+02 </wgt>
<wgt id='1091'> +1.5492000e+02 </wgt>
<wgt id='1092'> +1.5099000e+02 </wgt>
<wgt id='1093'> +1.4976000e+02 </wgt>
<wgt id='1094'> +1.4869000e+02 </wgt>
<wgt id='1095'> +1.5135000e+02 </wgt>
<wgt id='1096'> +1.5548000e+02 </wgt>
<wgt id='1097'> +1.5240000e+02 </wgt>
<wgt id='1098'> +1.5155000e+02 </wgt>
<wgt id='1099'> +1.4953000e+02 </wgt>
<wgt id='1100'> +1.5141000e+02 </wgt>
<wgt id='1101'> +1.5132000e+02 </wgt>
<wgt id='1102'> +1.5464000e+02 </wgt>
<wgt id='1103'> +1.4862000e+02 </wgt>
<wgt id='1104'> +1.5345000e+02 </wgt>
<wgt id='1105'> +1.5146096e+02 </wgt>
<wgt id='1106'> +8.0653449e+01 </wgt>
<wgt id='1107'> +6.9645266e+01 </wgt>
<wgt id='1108'> +3.6146461e+00 </wgt>
<wgt id='1109'> +1.8734846e+01 </wgt>
<wgt id='1110'> -1.5075250e+01 </wgt>
<wgt id='1111'> +1.1759481e+02 </wgt>
<wgt id='1112'> +1.1512476e+02 </wgt>
<wgt id='1113'> +1.2064801e+02 </wgt>
<wgt id='1114'> +6.7232506e+01 </wgt>
<wgt id='1115'> +6.7735064e+01 </wgt>
<wgt id='1116'> +6.6975108e+01 </wgt>
<wgt id='1117'> +6.6415021e+01 </wgt>
<wgt id='1118'> +6.7230292e+01 </wgt>
<wgt id='1119'> +6.6248199e+01 </wgt>
<wgt id='1120'> +6.7508258e+01 </wgt>
<wgt id='1121'> +6.7611317e+01 </wgt>
<wgt id='1122'> +6.7443365e+01 </wgt>
<wgt id='1123'> +6.6941220e+01 </wgt>
<wgt id='1124'> +6.7543516e+01 </wgt>
<wgt id='1125'> +6.8009031e+01 </wgt>
<wgt id='1126'> +6.7732392e+01 </wgt>
<wgt id='1127'> +6.7624402e+01 </wgt>
<wgt id='1128'> +6.7243247e+01 </wgt>
<wgt id='1129'> +6.5717762e+01 </wgt>
<wgt id='1130'> +6.7562551e+01 </wgt>
<wgt id='1131'> +6.7267039e+01 </wgt>
<wgt id='1132'> +6.7371475e+01 </wgt>
<wgt id='1133'> +6.5848476e+01 </wgt>
<wgt id='1134'> +6.6289785e+01 </wgt>
<wgt id='1135'> +6.5798496e+01 </wgt>
<wgt id='1136'> +6.6595351e+01 </wgt>
<wgt id='1137'> +6.6674682e+01 </wgt>
<wgt id='1138'> +6.7796305e+01 </wgt>
<wgt id='1139'> +6.6574532e+01 </wgt>
<wgt id='1140'> +6.7199042e+01 </wgt>
<wgt id='1141'> +6.6218834e+01 </wgt>
<wgt id='1142'> +6.7218780e+01 </wgt>
<wgt id='1143'> +6.6520931e+01 </wgt>
<wgt id='1144'> +6.7653651e+01 </wgt>
<wgt id='1145'> +6.7561799e+01 </wgt>
<wgt id='1146'> +6.8289699e+01 </wgt>
<wgt id='1147'> +6.5745601e+01 </wgt>
<wgt id='1148'> +6.8027667e+01 </wgt>
<wgt id='1149'> +6.6286217e+01 </wgt>
<wgt id='1150'> +6.7456026e+01 </wgt>
<wgt id='1151'> +6.7697557e+01 </wgt>
<wgt id='1152'> +6.5784562e+01 </wgt>
<wgt id='1153'> +6.6705478e+01 </wgt>
<wgt id='1154'> +6.7771160e+01 </wgt>
<wgt id='1155'> +6.6249300e+01 </wgt>
<wgt id='1156'> +6.8696548e+01 </wgt>
<wgt id='1157'> +6.7335785e+01 </wgt>
<wgt id='1158'> +6.6443513e+01 </wgt>
<wgt id='1159'> +6.6929013e+01 </wgt>
<wgt id='1160'> +6.7825038e+01 </wgt>
<wgt id='1161'> +6.7337699e+01 </wgt>
<wgt id='1162'> +6.9398186e+01 </wgt>
<wgt id='1163'> +6.6819947e+01 </wgt>
<wgt id='1164'> +6.8109733e+01 </wgt>
<wgt id='1165'> +6.6357656e+01 </wgt>
<wgt id='1166'> +6.7319936e+01 </wgt>
<wgt id='1167'> +6.6179242e+01 </wgt>
<wgt id='1168'> +6.7572666e+01 </wgt>
<wgt id='1169'> +6.7395407e+01 </wgt>
<wgt id='1170'> +6.7381336e+01 </wgt>
<wgt id='1171'> +6.8563055e+01 </wgt>
<wgt id='1172'> +6.6812039e+01 </wgt>
<wgt id='1173'> +6.5417679e+01 </wgt>
<wgt id='1174'> +6.7701249e+01 </wgt>
<wgt id='1175'> +6.8109816e+01 </wgt>
<wgt id='1176'> +6.7708512e+01 </wgt>
<wgt id='1177'> +6.5191747e+01 </wgt>
<wgt id='1178'> +6.7660933e+01 </wgt>
<wgt id='1179'> +6.6559566e+01 </wgt>
<wgt id='1180'> +6.7405584e+01 </wgt>
<wgt id='1181'> +6.6858480e+01 </wgt>
<wgt id='1182'> +6.7341684e+01 </wgt>
<wgt id='1183'> +6.7313699e+01 </wgt>
<wgt id='1184'> +6.8256780e+01 </wgt>
<wgt id='1185'> +6.6387308e+01 </wgt>
<wgt id='1186'> +6.6076650e+01 </wgt>
<wgt id='1187'> +6.7742890e+01 </wgt>
<wgt id='1188'> +6.6593329e+01 </wgt>
<wgt id='1189'> +6.7588112e+01 </wgt>
<wgt id='1190'> +6.6124200e+01 </wgt>
<wgt id='1191'> +6.8218787e+01 </wgt>
<wgt id='1192'> +6.6290171e+01 </wgt>
<wgt id='1193'> +6.6067356e+01 </wgt>
<wgt id='1194'> +6.7348093e+01 </wgt>
<wgt id='1195'> +6.7955664e+01 </wgt>
<wgt id='1196'> +6.7562551e+01 </wgt>
<wgt id='1197'> +6.7307694e+01 </wgt>
<wgt id='1198'> +6.7841980e+01 </wgt>
<wgt id='1199'> +6.7910880e+01 </wgt>
<wgt id='1200'> +6.8379947e+01 </wgt>
<wgt id='1201'> +6.6995430e+01 </wgt>
<wgt id='1202'> +6.8179137e+01 </wgt>
<wgt id='1203'> +6.8219118e+01 </wgt>
<wgt id='1204'> +6.7601949e+01 </wgt>
<wgt id='1205'> +6.6021085e+01 </wgt>
<wgt id='1206'> +6.6892408e+01 </wgt>
<wgt id='1207'> +6.7269440e+01 </wgt>
<wgt id='1208'> +6.7677715e+01 </wgt>
<wgt id='1209'> +6.9734359e+01 </wgt>
<wgt id='1210'> +6.6232133e+01 </wgt>
<wgt id='1211'> +6.8159184e+01 </wgt>
<wgt id='1212'> +6.7911991e+01 </wgt>
<wgt id='1213'> +6.8688275e+01 </wgt>
<wgt id='1214'> +6.7943506e+01 </wgt>
<wgt id='1215'> +7.7846970e+01 </wgt>
<wgt id='1216'> +6.5417932e+01 </wgt>
<wgt id='1217'> +6.5445892e+01 </wgt>
<wgt id='1218'> +6.5378068e+01 </wgt>
<wgt id='1219'> +6.5277910e+01 </wgt>
<wgt id='1220'> +6.5480238e+01 </wgt>
<wgt id='1221'> +6.5193543e+01 </wgt>
<wgt id='1222'> +6.5318327e+01 </wgt>
<wgt id='1223'> +6.5085627e+01 </wgt>
<wgt id='1224'> +6.5437160e+01 </wgt>
<wgt id='1225'> +6.5001027e+01 </wgt>
<wgt id='1226'> +6.5365371e+01 </wgt>
<wgt id='1227'> +6.5485538e+01 </wgt>
<wgt id='1228'> +6.5413515e+01 </wgt>
<wgt id='1229'> +6.5509056e+01 </wgt>
<wgt id='1230'> +6.5288383e+01 </wgt>
<wgt id='1231'> +6.5301555e+01 </wgt>
<wgt id='1232'> +6.5448877e+01 </wgt>
<wgt id='1233'> +6.5300219e+01 </wgt>
<wgt id='1234'> +6.5493385e+01 </wgt>
<wgt id='1235'> +6.5513930e+01 </wgt>
<wgt id='1236'> +6.5388439e+01 </wgt>
<wgt id='1237'> +6.5395949e+01 </wgt>
<wgt id='1238'> +6.5410446e+01 </wgt>
<wgt id='1239'> +6.5360992e+01 </wgt>
<wgt id='1240'> +6.5322996e+01 </wgt>
<wgt id='1241'> +6.5476347e+01 </wgt>
<wgt id='1242'> +6.5436604e+01 </wgt>
<wgt id='1243'> +6.5445545e+01 </wgt>
<wgt id='1244'> +6.5274908e+01 </wgt>
<wgt id='1245'> +6.5244467e+01 </wgt>
<wgt id='1246'> +6.5713548e+01 </wgt>
<wgt id='1247'> +6.5565604e+01 </wgt>
<wgt id='1248'> +6.5458375e+01 </wgt>
<wgt id='1249'> +6.5546639e+01 </wgt>
<wgt id='1250'> +6.5434127e+01 </wgt>
<wgt id='1251'> +6.5626704e+01 </wgt>
<wgt id='1252'> +6.5480217e+01 </wgt>
<wgt id='1253'> +6.5413702e+01 </wgt>
<wgt id='1254'> +6.5433428e+01 </wgt>
<wgt id='1255'> +6.5396020e+01 </wgt>
<wgt id='1256'> +6.5390803e+01 </wgt>
<wgt id='1257'> +6.5475536e+01 </wgt>
<wgt id='1258'> +6.5337202e+01 </wgt>
<wgt id='1259'> +6.5327018e+01 </wgt>
<wgt id='1260'> +6.5439301e+01 </wgt>
<wgt id='1261'> +6.5473738e+01 </wgt>
<wgt id='1262'> +6.5503213e+01 </wgt>
<wgt id='1263'> +6.5419601e+01 </wgt>
<wgt id='1264'> +6.5444752e+01 </wgt>
<wgt id='1265'> +6.5401757e+01 </wgt>
<wgt id='1266'> +6.5375869e+01 </wgt>
<wgt id='1267'> +6.5504428e+01 </wgt>
<wgt id='1268'> +6.5374150e+01 </wgt>
<wgt id='1269'> +6.5395087e+01 </wgt>
<wgt id='1270'> +6.5422679e+01 </wgt>
<wgt id='1271'> +6.5355350e+01 </wgt>
<wgt id='1272'> +6.5422907e+01 </wgt>
<wgt id='1273'> +6.5402781e+01 </wgt>
<wgt id='1274'> +6.5378018e+01 </wgt>
<wgt id='1275'> +6.5415736e+01 </wgt>
<wgt id='1276'> +6.5440899e+01 </wgt>
<wgt id='1277'> +6.5426189e+01 </wgt>
<wgt id='1278'> +6.5432364e+01 </wgt>
<wgt id='1279'> +6.5442462e+01 </wgt>
<wgt id='1280'> +6.5401286e+01 </wgt>
<wgt id='1281'> +6.5412317e+01 </wgt>
<wgt id='1282'> +6.5432769e+01 </wgt>
<wgt id='1283'> +6.5387964e+01 </wgt>
<wgt id='1284'> +6.5430143e+01 </wgt>
<wgt id='1285'> +6.5400963e+01 </wgt>
<wgt id='1286'> +6.5422335e+01 </wgt>
<wgt id='1287'> +6.5412832e+01 </wgt>
<wgt id='1288'> +6.5417557e+01 </wgt>
<wgt id='1289'> +6.5393081e+01 </wgt>
<wgt id='1290'> +6.5451088e+01 </wgt>
<wgt id='1291'> +6.5418264e+01 </wgt>
<wgt id='1292'> +6.5414977e+01 </wgt>
<wgt id='1293'> +6.5427647e+01 </wgt>
<wgt id='1294'> +6.5430373e+01 </wgt>
<wgt id='1295'> +6.5407251e+01 </wgt>
<wgt id='1296'> +6.5411348e+01 </wgt>
<wgt id='1297'> +6.5416039e+01 </wgt>
<wgt id='1298'> +6.5407436e+01 </wgt>
<wgt id='1299'> +6.5419182e+01 </wgt>
<wgt id='1300'> +6.5410755e+01 </wgt>
<wgt id='1301'> +6.5425129e+01 </wgt>
<wgt id='1302'> +6.5402315e+01 </wgt>
<wgt id='1303'> +6.5408839e+01 </wgt>
<wgt id='1304'> +6.5414089e+01 </wgt>
<wgt id='1305'> +6.5416893e+01 </wgt>
<wgt id='1306'> +6.5419830e+01 </wgt>
<wgt id='1307'> +6.5419185e+01 </wgt>
<wgt id='1308'> +6.5422033e+01 </wgt>
<wgt id='1309'> +6.5422040e+01 </wgt>
<wgt id='1310'> +6.5427282e+01 </wgt>
<wgt id='1311'> +6.5419927e+01 </wgt>
<wgt id='1312'> +6.5414373e+01 </wgt>
<wgt id='1313'> +6.5411769e+01 </wgt>
<wgt id='1314'> +6.5416043e+01 </wgt>
<wgt id='1315'> +6.5424024e+01 </wgt>
<wgt id='1316'> +6.5422564e+01 </wgt>
<wgt id='1317'> +6.3282138e+01 </wgt>
<wgt id='1318'> +6.7614576e+01 </wgt>
<wgt id='1319'> +4.3514892e+01 </wgt>
<wgt id='1320'> +6.5456874e+01 </wgt>
<wgt id='1321'> +6.5427273e+01 </wgt>
<wgt id='1322'> +6.5613401e+01 </wgt>
<wgt id='1323'> +6.4643219e+01 </wgt>
<wgt id='1324'> +6.6065479e+01 </wgt>
<wgt id='1325'> +6.5751739e+01 </wgt>
<wgt id='1326'> +6.5235429e+01 </wgt>
<wgt id='1327'> +6.4982323e+01 </wgt>
<wgt id='1328'> +6.6055248e+01 </wgt>
<wgt id='1329'> +6.4841992e+01 </wgt>
<wgt id='1330'> +6.5789749e+01 </wgt>
<wgt id='1331'> +6.5912672e+01 </wgt>
<wgt id='1332'> +6.5193928e+01 </wgt>
<wgt id='1333'> +6.3789239e+01 </wgt>
<wgt id='1334'> +6.6429676e+01 </wgt>
<wgt id='1335'> +6.6418134e+01 </wgt>
<wgt id='1336'> +6.4861818e+01 </wgt>
<wgt id='1337'> +6.4479936e+01 </wgt>
<wgt id='1338'> +6.6619105e+01 </wgt>
<wgt id='1339'> +6.5767311e+01 </wgt>
<wgt id='1340'> +6.5069673e+01 </wgt>
<wgt id='1341'> +6.5417023e+01 </wgt>
<wgt id='1342'> +6.5486698e+01 </wgt>
<wgt id='1343'> +6.5506160e+01 </wgt>
<wgt id='1344'> +6.5359961e+01 </wgt>
<wgt id='1345'> +6.5061730e+01 </wgt>
<wgt id='1346'> +6.5813411e+01 </wgt>
<wgt id='1347'> +6.5442114e+01 </wgt>
<wgt id='1348'> +6.5459382e+01 </wgt>
<wgt id='1349'> +6.5259788e+01 </wgt>
<wgt id='1350'> +6.5524087e+01 </wgt>
<wgt id='1351'> +6.5518030e+01 </wgt>
<wgt id='1352'> +6.5377905e+01 </wgt>
<wgt id='1353'> +6.5450486e+01 </wgt>
<wgt id='1354'> +6.5479692e+01 </wgt>
<wgt id='1355'> +6.5728112e+01 </wgt>
<wgt id='1356'> +6.5186069e+01 </wgt>
<wgt id='1357'> +6.5459151e+01 </wgt>
<wgt id='1358'> +6.5323594e+01 </wgt>
<wgt id='1359'> +6.5132397e+01 </wgt>
<wgt id='1360'> +6.5643526e+01 </wgt>
<wgt id='1361'> +6.5626643e+01 </wgt>
<wgt id='1362'> +6.5287406e+01 </wgt>
<wgt id='1363'> +6.4969565e+01 </wgt>
<wgt id='1364'> +6.5898918e+01 </wgt>
<wgt id='1365'> +6.5133870e+01 </wgt>
<wgt id='1366'> +6.5405260e+01 </wgt>
<wgt id='1367'> +6.5607417e+01 </wgt>
<wgt id='1368'> +6.4968005e+01 </wgt>
<wgt id='1369'> +6.4828573e+01 </wgt>
<wgt id='1370'> +6.5897537e+01 </wgt>
<wgt id='1371'> +6.5344424e+01 </wgt>
<wgt id='1372'> +6.5425247e+01 </wgt>
<wgt id='1373'> +6.3299682e+01 </wgt>
<wgt id='1374'> +6.4880733e+01 </wgt>
<wgt id='1375'> +6.5252815e+01 </wgt>
<wgt id='1376'> +6.5917254e+01 </wgt>
<wgt id='1377'> +6.2972780e+01 </wgt>
<wgt id='1378'> +6.8014818e+01 </wgt>
<wgt id='1379'> +6.8161626e+01 </wgt>
<wgt id='1380'> +6.5571142e+01 </wgt>
<wgt id='1381'> +7.0837544e+01 </wgt>
<wgt id='1382'> +4.4138974e+01 </wgt>
<wgt id='1383'> +6.7194741e+01 </wgt>
<wgt id='1384'> +6.8985235e+01 </wgt>
<wgt id='1385'> +6.0340971e+01 </wgt>
<wgt id='1386'> +6.0264492e+01 </wgt>
<wgt id='1387'> +6.0427965e+01 </wgt>
<wgt id='1388'> +6.0137625e+01 </wgt>
<wgt id='1389'> +6.0690555e+01 </wgt>
<wgt id='1390'> +6.0375058e+01 </wgt>
<wgt id='1391'> +6.0301240e+01 </wgt>
<wgt id='1392'> +6.0708151e+01 </wgt>
<wgt id='1393'> +6.0076882e+01 </wgt>
<wgt id='1394'> +6.0062750e+01 </wgt>
<wgt id='1395'> +6.0682736e+01 </wgt>
<wgt id='1396'> +5.9908981e+01 </wgt>
<wgt id='1397'> +6.0563811e+01 </wgt>
<wgt id='1398'> +6.0623204e+01 </wgt>
<wgt id='1399'> +6.0124524e+01 </wgt>
<wgt id='1400'> +6.0098155e+01 </wgt>
<wgt id='1401'> +6.0523103e+01 </wgt>
<wgt id='1402'> +6.0238435e+01 </wgt>
<wgt id='1403'> +6.0390726e+01 </wgt>
<wgt id='1404'> +6.1041196e+01 </wgt>
<wgt id='1405'> +5.9999728e+01 </wgt>
<wgt id='1406'> +6.0281248e+01 </wgt>
<wgt id='1407'> +6.0448650e+01 </wgt>
<wgt id='1408'> +6.0354454e+01 </wgt>
<wgt id='1409'> +6.0314082e+01 </wgt>
<wgt id='1410'> +6.0353045e+01 </wgt>
<wgt id='1411'> +6.0273617e+01 </wgt>
<wgt id='1412'> +6.0414001e+01 </wgt>
<wgt id='1413'> +6.0047380e+01 </wgt>
<wgt id='1414'> +6.0587125e+01 </wgt>
<wgt id='1415'> +6.0188940e+01 </wgt>
<wgt id='1416'> +6.0420045e+01 </wgt>
<wgt id='1417'> +6.0295228e+01 </wgt>
<wgt id='1418'> +6.0615661e+01 </wgt>
<wgt id='1419'> +5.9711365e+01 </wgt>
<wgt id='1420'> +5.9966658e+01 </wgt>
<wgt id='1421'> +6.0327466e+01 </wgt>
<wgt id='1422'> +6.0479812e+01 </wgt>
<wgt id='1423'> +6.0176925e+01 </wgt>
<wgt id='1424'> +6.0413227e+01 </wgt>
<wgt id='1425'> +5.9948904e+01 </wgt>
<wgt id='1426'> +6.0453466e+01 </wgt>
<wgt id='1427'> +6.0235904e+01 </wgt>
<wgt id='1428'> +6.0744921e+01 </wgt>
<wgt id='1429'> +5.9959121e+01 </wgt>
<wgt id='1430'> +6.0307154e+01 </wgt>
<wgt id='1431'> +6.0375875e+01 </wgt>
<wgt id='1432'> +6.0285944e+01 </wgt>
<wgt id='1433'> +6.0394874e+01 </wgt>
<wgt id='1434'> +6.0314346e+01 </wgt>
<wgt id='1435'> +6.0349975e+01 </wgt>
<wgt id='1436'> +0.0000000e+00 </wgt>
<wgt id='1437'> +0.0000000e+00 </wgt>
<wgt id='1438'> +0.0000000e+00 </wgt>
<wgt id='1439'> +0.0000000e+00 </wgt>
<wgt id='1440'> +0.0000000e+00 </wgt>
<wgt id='1441'> +0.0000000e+00 </wgt>
<wgt id='1442'> +0.0000000e+00 </wgt>
<wgt id='1443'> +0.0000000e+00 </wgt>
<wgt id='1444'> +0.0000000e+00 </wgt>
<wgt id='1445'> +0.0000000e+00 </wgt>
<wgt id='1446'> +0.0000000e+00 </wgt>
<wgt id='1447'> +0.0000000e+00 </wgt>
<wgt id='1448'> +0.0000000e+00 </wgt>
<wgt id='1449'> +0.0000000e+00 </wgt>
<wgt id='1450'> +0.0000000e+00 </wgt>
<wgt id='1451'> +0.0000000e+00 </wgt>
<wgt id='1452'> +0.0000000e+00 </wgt>
<wgt id='1453'> +0.0000000e+00 </wgt>
<wgt id='1454'> +0.0000000e+00 </wgt>
<wgt id='1455'> +0.0000000e+00 </wgt>
<wgt id='1456'> +0.0000000e+00 </wgt>
<wgt id='1457'> +0.0000000e+00 </wgt>
<wgt id='1458'> +0.0000000e+00 </wgt>
<wgt id='1459'> +0.0000000e+00 </wgt>
<wgt id='1460'> +0.0000000e+00 </wgt>
<wgt id='1461'> +0.0000000e+00 </wgt>
<wgt id='1462'> +0.0000000e+00 </wgt>
<wgt id='1463'> +0.0000000e+00 </wgt>
<wgt id='1464'> +0.0000000e+00 </wgt>
<wgt id='1465'> +7.8512988e+01 </wgt>
<wgt id='1466'> +6.9298597e+01 </wgt>
<wgt id='1467'> +6.8708279e+01 </wgt>
<wgt id='1468'> +6.9362793e+01 </wgt>
<wgt id='1469'> +6.8840391e+01 </wgt>
<wgt id='1470'> +6.8970197e+01 </wgt>
<wgt id='1471'> +7.0138457e+01 </wgt>
<wgt id='1472'> +7.0011865e+01 </wgt>
<wgt id='1473'> +6.8874860e+01 </wgt>
<wgt id='1474'> +6.7352046e+01 </wgt>
<wgt id='1475'> +7.0471228e+01 </wgt>
<wgt id='1476'> +7.1737857e+01 </wgt>
<wgt id='1477'> +6.9370974e+01 </wgt>
<wgt id='1478'> +6.9153347e+01 </wgt>
<wgt id='1479'> +6.9207263e+01 </wgt>
<wgt id='1480'> +6.7443988e+01 </wgt>
<wgt id='1481'> +7.0110470e+01 </wgt>
<wgt id='1482'> +6.8501090e+01 </wgt>
<wgt id='1483'> +6.8785600e+01 </wgt>
<wgt id='1484'> +6.9296388e+01 </wgt>
<wgt id='1485'> +6.8601472e+01 </wgt>
<wgt id='1486'> +6.8769133e+01 </wgt>
<wgt id='1487'> +6.9920891e+01 </wgt>
<wgt id='1488'> +6.9905697e+01 </wgt>
<wgt id='1489'> +6.9104929e+01 </wgt>
<wgt id='1490'> +6.9594001e+01 </wgt>
<wgt id='1491'> +7.0129664e+01 </wgt>
<wgt id='1492'> +6.9557379e+01 </wgt>
<wgt id='1493'> +6.9089504e+01 </wgt>
<wgt id='1494'> +6.9613093e+01 </wgt>
<wgt id='1495'> +6.9341593e+01 </wgt>
<wgt id='1496'> +6.9651398e+01 </wgt>
<wgt id='1497'> +6.9326295e+01 </wgt>
<wgt id='1498'> +6.9186484e+01 </wgt>
<wgt id='1499'> +6.9438634e+01 </wgt>
<wgt id='1500'> +6.9673592e+01 </wgt>
<wgt id='1501'> +6.9154257e+01 </wgt>
<wgt id='1502'> +6.9327526e+01 </wgt>
<wgt id='1503'> +6.9319450e+01 </wgt>
<wgt id='1504'> +6.9426899e+01 </wgt>
<wgt id='1505'> +6.9538338e+01 </wgt>
<wgt id='1506'> +6.9580932e+01 </wgt>
<wgt id='1507'> +6.9428653e+01 </wgt>
<wgt id='1508'> +6.9319236e+01 </wgt>
<wgt id='1509'> +6.9247054e+01 </wgt>
<wgt id='1510'> +6.9579177e+01 </wgt>
<wgt id='1511'> +6.9265651e+01 </wgt>
<wgt id='1512'> +6.9217335e+01 </wgt>
<wgt id='1513'> +6.9227389e+01 </wgt>
<wgt id='1514'> +6.9508629e+01 </wgt>
<wgt id='1515'> +6.9389634e+01 </wgt>
<wgt id='1516'> +6.9007654e+01 </wgt>
<wgt id='1517'> +6.9417533e+01 </wgt>
<wgt id='1518'> +6.9035292e+01 </wgt>
<wgt id='1519'> +6.9046182e+01 </wgt>
<wgt id='1520'> +6.9167578e+01 </wgt>
<wgt id='1521'> +6.9339761e+01 </wgt>
<wgt id='1522'> +6.9204882e+01 </wgt>
<wgt id='1523'> +6.9466800e+01 </wgt>
<wgt id='1524'> +6.9316317e+01 </wgt>
<wgt id='1525'> +6.9455541e+01 </wgt>
<wgt id='1526'> +6.9299537e+01 </wgt>
<wgt id='1527'> +6.9558014e+01 </wgt>
<wgt id='1528'> +6.9468825e+01 </wgt>
<wgt id='1529'> +6.9244987e+01 </wgt>
<wgt id='1530'> +6.9308408e+01 </wgt>
<wgt id='1531'> +6.9424588e+01 </wgt>
<wgt id='1532'> +6.9511336e+01 </wgt>
<wgt id='1533'> +6.9338289e+01 </wgt>
<wgt id='1534'> +6.9389142e+01 </wgt>
<wgt id='1535'> +6.9335980e+01 </wgt>
<wgt id='1536'> +6.9162287e+01 </wgt>
<wgt id='1537'> +6.9197749e+01 </wgt>
<wgt id='1538'> +6.9287125e+01 </wgt>
<wgt id='1539'> +6.9373281e+01 </wgt>
<wgt id='1540'> +6.8999219e+01 </wgt>
<wgt id='1541'> +6.9252454e+01 </wgt>
<wgt id='1542'> +6.9377930e+01 </wgt>
<wgt id='1543'> +6.9166403e+01 </wgt>
<wgt id='1544'> +6.9187850e+01 </wgt>
<wgt id='1545'> +6.9298774e+01 </wgt>
<wgt id='1546'> +6.9292331e+01 </wgt>
<wgt id='1547'> +6.9402300e+01 </wgt>
<wgt id='1548'> +6.9410890e+01 </wgt>
<wgt id='1549'> +6.9179180e+01 </wgt>
<wgt id='1550'> +6.9398985e+01 </wgt>
<wgt id='1551'> +6.9290045e+01 </wgt>
<wgt id='1552'> +6.9398114e+01 </wgt>
<wgt id='1553'> +6.9409295e+01 </wgt>
<wgt id='1554'> +6.9413842e+01 </wgt>
<wgt id='1555'> +6.9264550e+01 </wgt>
<wgt id='1556'> +6.9373568e+01 </wgt>
<wgt id='1557'> +6.9196571e+01 </wgt>
<wgt id='1558'> +6.9273753e+01 </wgt>
<wgt id='1559'> +6.9400988e+01 </wgt>
<wgt id='1560'> +6.9186172e+01 </wgt>
<wgt id='1561'> +6.9213219e+01 </wgt>
<wgt id='1562'> +6.9401833e+01 </wgt>
<wgt id='1563'> +6.9300411e+01 </wgt>
<wgt id='1564'> +6.9260809e+01 </wgt>
<wgt id='1565'> +6.9253631e+01 </wgt>
<wgt id='1566'> +6.9306244e+01 </wgt>
<wgt id='1567'> +6.7562578e+01 </wgt>
<wgt id='1568'> +7.1003933e+01 </wgt>
<wgt id='1569'> +7.1428307e+01 </wgt>
<wgt id='1570'> +7.0416715e+01 </wgt>
<wgt id='1571'> +7.2202356e+01 </wgt>
<wgt id='1572'> +7.0195379e+01 </wgt>
<wgt id='1573'> +7.0897743e+01 </wgt>
<wgt id='1574'> +7.0759300e+01 </wgt>
<wgt id='1575'> +7.1925314e+01 </wgt>
<wgt id='1576'> +7.3375510e+01 </wgt>
<wgt id='1577'> +7.1910122e+01 </wgt>
<wgt id='1578'> +7.0880581e+01 </wgt>
<wgt id='1579'> +7.0240951e+01 </wgt>
<wgt id='1580'> +7.3086354e+01 </wgt>
<wgt id='1581'> +7.1426738e+01 </wgt>
<wgt id='1582'> +7.0261219e+01 </wgt>
<wgt id='1583'> +7.2149532e+01 </wgt>
<wgt id='1584'> +7.1610275e+01 </wgt>
<wgt id='1585'> +7.3031203e+01 </wgt>
<wgt id='1586'> +7.0437605e+01 </wgt>
<wgt id='1587'> +7.1252520e+01 </wgt>
<wgt id='1588'> +7.1997847e+01 </wgt>
<wgt id='1589'> +7.2103779e+01 </wgt>
<wgt id='1590'> +7.1561934e+01 </wgt>
<wgt id='1591'> +7.1153789e+01 </wgt>
<wgt id='1592'> +7.1339800e+01 </wgt>
<wgt id='1593'> +7.1019461e+01 </wgt>
<wgt id='1594'> +7.1407448e+01 </wgt>
<wgt id='1595'> +7.1114675e+01 </wgt>
<wgt id='1596'> +7.1768059e+01 </wgt>
<wgt id='1597'> +7.1583933e+01 </wgt>
<wgt id='1598'> +7.1142698e+01 </wgt>
<wgt id='1599'> +7.1134940e+01 </wgt>
<wgt id='1600'> +7.1593295e+01 </wgt>
<wgt id='1601'> +7.1118490e+01 </wgt>
<wgt id='1602'> +7.1077194e+01 </wgt>
<wgt id='1603'> +7.1634600e+01 </wgt>
<wgt id='1604'> +7.1324246e+01 </wgt>
<wgt id='1605'> +7.1570728e+01 </wgt>
<wgt id='1606'> +7.1228120e+01 </wgt>
<wgt id='1607'> +7.1362057e+01 </wgt>
<wgt id='1608'> +7.1221250e+01 </wgt>
<wgt id='1609'> +7.1369034e+01 </wgt>
<wgt id='1610'> +7.1721005e+01 </wgt>
<wgt id='1611'> +7.1736825e+01 </wgt>
<wgt id='1612'> +7.1282228e+01 </wgt>
<wgt id='1613'> +7.1311503e+01 </wgt>
<wgt id='1614'> +7.1683974e+01 </wgt>
<wgt id='1615'> +7.1440200e+01 </wgt>
<wgt id='1616'> +7.1709785e+01 </wgt>
<wgt id='1617'> +7.1568762e+01 </wgt>
<wgt id='1618'> +7.1590662e+01 </wgt>
<wgt id='1619'> +7.1383559e+01 </wgt>
<wgt id='1620'> +7.1330866e+01 </wgt>
<wgt id='1621'> +7.1538566e+01 </wgt>
<wgt id='1622'> +7.1168072e+01 </wgt>
<wgt id='1623'> +7.1384419e+01 </wgt>
<wgt id='1624'> +7.1440232e+01 </wgt>
<wgt id='1625'> +7.1331337e+01 </wgt>
<wgt id='1626'> +7.1600404e+01 </wgt>
<wgt id='1627'> +7.1248184e+01 </wgt>
<wgt id='1628'> +7.1394819e+01 </wgt>
<wgt id='1629'> +7.1426290e+01 </wgt>
<wgt id='1630'> +7.1420303e+01 </wgt>
<wgt id='1631'> +7.1449714e+01 </wgt>
<wgt id='1632'> +7.1222810e+01 </wgt>
<wgt id='1633'> +7.1664945e+01 </wgt>
<wgt id='1634'> +7.1302869e+01 </wgt>
<wgt id='1635'> +7.1297733e+01 </wgt>
<wgt id='1636'> +7.1386415e+01 </wgt>
<wgt id='1637'> +7.1406652e+01 </wgt>
<wgt id='1638'> +7.1406215e+01 </wgt>
<wgt id='1639'> +7.1405843e+01 </wgt>
<wgt id='1640'> +7.1370971e+01 </wgt>
<wgt id='1641'> +7.1322957e+01 </wgt>
<wgt id='1642'> +7.1499102e+01 </wgt>
<wgt id='1643'> +7.1429031e+01 </wgt>
<wgt id='1644'> +7.1498209e+01 </wgt>
<wgt id='1645'> +7.1397136e+01 </wgt>
<wgt id='1646'> +7.1409995e+01 </wgt>
<wgt id='1647'> +7.1274839e+01 </wgt>
<wgt id='1648'> +7.1429281e+01 </wgt>
<wgt id='1649'> +7.1546920e+01 </wgt>
<wgt id='1650'> +7.1486287e+01 </wgt>
<wgt id='1651'> +7.1437857e+01 </wgt>
<wgt id='1652'> +7.1490352e+01 </wgt>
<wgt id='1653'> +7.1397167e+01 </wgt>
<wgt id='1654'> +7.1324437e+01 </wgt>
<wgt id='1655'> +7.1498161e+01 </wgt>
<wgt id='1656'> +7.1312104e+01 </wgt>
<wgt id='1657'> +7.1360532e+01 </wgt>
<wgt id='1658'> +7.1373238e+01 </wgt>
<wgt id='1659'> +7.1367798e+01 </wgt>
<wgt id='1660'> +7.1321374e+01 </wgt>
<wgt id='1661'> +7.1340647e+01 </wgt>
<wgt id='1662'> +7.1421912e+01 </wgt>
<wgt id='1663'> +7.1317798e+01 </wgt>
<wgt id='1664'> +7.1373366e+01 </wgt>
<wgt id='1665'> +7.1510291e+01 </wgt>
<wgt id='1666'> +7.1447629e+01 </wgt>
<wgt id='1667'> +7.1342974e+01 </wgt>
<wgt id='1668'> +7.1483432e+01 </wgt>
<wgt id='1669'> +7.1470445e+01 </wgt>
<wgt id='1670'> +6.9808592e+01 </wgt>
<wgt id='1671'> +7.2850578e+01 </wgt>
<wgt id='1672'> +6.9295816e+01 </wgt>
<wgt id='1673'> +6.9827807e+01 </wgt>
<wgt id='1674'> +6.7441516e+01 </wgt>
<wgt id='1675'> +6.9236696e+01 </wgt>
<wgt id='1676'> +6.6353058e+01 </wgt>
<wgt id='1677'> +6.9446482e+01 </wgt>
<wgt id='1678'> +6.8576944e+01 </wgt>
<wgt id='1679'> +6.9281670e+01 </wgt>
<wgt id='1680'> +7.0068456e+01 </wgt>
<wgt id='1681'> +6.8931056e+01 </wgt>
<wgt id='1682'> +7.0045144e+01 </wgt>
<wgt id='1683'> +6.9313440e+01 </wgt>
<wgt id='1684'> +6.9738562e+01 </wgt>
<wgt id='1685'> +6.9538893e+01 </wgt>
<wgt id='1686'> +6.8747171e+01 </wgt>
<wgt id='1687'> +6.9144234e+01 </wgt>
<wgt id='1688'> +6.8365764e+01 </wgt>
<wgt id='1689'> +6.8953546e+01 </wgt>
<wgt id='1690'> +6.9762676e+01 </wgt>
<wgt id='1691'> +6.9643750e+01 </wgt>
<wgt id='1692'> +6.9518999e+01 </wgt>
<wgt id='1693'> +6.9132090e+01 </wgt>
<wgt id='1694'> +6.9222051e+01 </wgt>
<wgt id='1695'> +6.9336422e+01 </wgt>
<wgt id='1696'> +6.8745492e+01 </wgt>
<wgt id='1697'> +6.9499522e+01 </wgt>
<wgt id='1698'> +6.9916543e+01 </wgt>
<wgt id='1699'> +6.9831192e+01 </wgt>
<wgt id='1700'> +7.0338300e+01 </wgt>
<wgt id='1701'> +6.9712148e+01 </wgt>
<wgt id='1702'> +6.9262906e+01 </wgt>
<wgt id='1703'> +6.7562578e+01 </wgt>
<wgt id='1704'> +7.1003933e+01 </wgt>
<wgt id='1705'> +7.1425469e+01 </wgt>
<wgt id='1706'> +6.9442761e+01 </wgt>
<wgt id='1707'> +7.1861428e+01 </wgt>
<wgt id='1708'> +7.1018953e+01 </wgt>
<wgt id='1709'> +7.3188350e+01 </wgt>
<wgt id='1710'> +6.9959958e+01 </wgt>
<wgt id='1711'> +7.1136786e+01 </wgt>
<wgt id='1712'> +7.1272293e+01 </wgt>
<wgt id='1713'> +7.0253130e+01 </wgt>
<wgt id='1714'> +7.0889666e+01 </wgt>
<wgt id='1715'> +7.3202789e+01 </wgt>
<wgt id='1716'> +7.2446478e+01 </wgt>
<wgt id='1717'> +7.1742953e+01 </wgt>
<wgt id='1718'> +7.1521187e+01 </wgt>
<wgt id='1719'> +7.1534390e+01 </wgt>
<wgt id='1720'> +7.1096388e+01 </wgt>
<wgt id='1721'> +7.1066587e+01 </wgt>
<wgt id='1722'> +7.1637187e+01 </wgt>
<wgt id='1723'> +7.0927173e+01 </wgt>
<wgt id='1724'> +7.0699713e+01 </wgt>
<wgt id='1725'> +7.2472731e+01 </wgt>
<wgt id='1726'> +7.1724638e+01 </wgt>
<wgt id='1727'> +7.2084544e+01 </wgt>
<wgt id='1728'> +7.1386715e+01 </wgt>
<wgt id='1729'> +7.2659298e+01 </wgt>
<wgt id='1730'> +7.1316690e+01 </wgt>
<wgt id='1731'> +7.1889551e+01 </wgt>
<wgt id='1732'> +7.1710899e+01 </wgt>
<wgt id='1733'> +7.2490688e+01 </wgt>
<wgt id='1734'> +7.1462692e+01 </wgt>
<wgt id='1735'> +7.1392991e+01 </wgt>
<wgt id='1736'> +6.9808592e+01 </wgt>
<wgt id='1737'> +7.2850578e+01 </wgt>
<wgt id='1738'> +6.9714063e+01 </wgt>
<wgt id='1739'> +6.9606447e+01 </wgt>
<wgt id='1740'> +6.9821317e+01 </wgt>
<wgt id='1741'> +6.9950113e+01 </wgt>
<wgt id='1742'> +6.9478442e+01 </wgt>
<wgt id='1743'> +6.9791406e+01 </wgt>
<wgt id='1744'> +6.9636786e+01 </wgt>
<wgt id='1745'> +6.9864686e+01 </wgt>
<wgt id='1746'> +6.9567531e+01 </wgt>
<wgt id='1747'> +6.9775755e+01 </wgt>
<wgt id='1748'> +6.9656108e+01 </wgt>
<wgt id='1749'> +6.9331816e+01 </wgt>
<wgt id='1750'> +7.0077423e+01 </wgt>
<wgt id='1751'> +6.9507196e+01 </wgt>
<wgt id='1752'> +6.9920901e+01 </wgt>
<wgt id='1753'> +6.9907500e+01 </wgt>
<wgt id='1754'> +6.9600820e+01 </wgt>
<wgt id='1755'> +6.9973016e+01 </wgt>
<wgt id='1756'> +6.9391237e+01 </wgt>
<wgt id='1757'> +6.9815080e+01 </wgt>
<wgt id='1758'> +6.9635851e+01 </wgt>
<wgt id='1759'> +6.9941465e+01 </wgt>
<wgt id='1760'> +6.9400727e+01 </wgt>
<wgt id='1761'> +6.9070675e+01 </wgt>
<wgt id='1762'> +7.0007057e+01 </wgt>
<wgt id='1763'> +6.9475246e+01 </wgt>
<wgt id='1764'> +7.0062619e+01 </wgt>
<wgt id='1765'> +7.0294303e+01 </wgt>
<wgt id='1766'> +6.9238124e+01 </wgt>
<wgt id='1767'> +6.9714063e+01 </wgt>
<wgt id='1768'> +6.9807656e+01 </wgt>
<wgt id='1769'> +6.9518888e+01 </wgt>
<wgt id='1770'> +6.9793159e+01 </wgt>
<wgt id='1771'> +6.9587087e+01 </wgt>
<wgt id='1772'> +6.9879202e+01 </wgt>
<wgt id='1773'> +7.0065540e+01 </wgt>
<wgt id='1774'> +7.3450377e+01 </wgt>
<wgt id='1775'> +6.6309615e+01 </wgt>
<wgt id='1776'> +6.9706649e+01 </wgt>
<wgt id='1777'> +6.9765859e+01 </wgt>
<wgt id='1778'> +6.9427282e+01 </wgt>
<wgt id='1779'> +6.9964526e+01 </wgt>
<wgt id='1780'> +6.9604936e+01 </wgt>
<wgt id='1781'> +7.4113813e+01 </wgt>
<wgt id='1782'> +7.4045854e+01 </wgt>
<wgt id='1783'> +7.4166081e+01 </wgt>
<wgt id='1784'> +7.4302700e+01 </wgt>
<wgt id='1785'> +7.3909299e+01 </wgt>
<wgt id='1786'> +7.4299828e+01 </wgt>
<wgt id='1787'> +7.3912811e+01 </wgt>
<wgt id='1788'> +7.4399151e+01 </wgt>
<wgt id='1789'> +7.3816780e+01 </wgt>
<wgt id='1790'> +7.3978754e+01 </wgt>
<wgt id='1791'> +7.4232126e+01 </wgt>
<wgt id='1792'> +7.4357709e+01 </wgt>
<wgt id='1793'> +7.3856409e+01 </wgt>
<wgt id='1794'> +7.3929984e+01 </wgt>
<wgt id='1795'> +7.4287749e+01 </wgt>
<wgt id='1796'> +7.4200200e+01 </wgt>
<wgt id='1797'> +7.4145686e+01 </wgt>
<wgt id='1798'> +7.4021147e+01 </wgt>
<wgt id='1799'> +7.4176539e+01 </wgt>
<wgt id='1800'> +7.4136161e+01 </wgt>
<wgt id='1801'> +7.4072349e+01 </wgt>
<wgt id='1802'> +7.3973801e+01 </wgt>
<wgt id='1803'> +7.4122341e+01 </wgt>
<wgt id='1804'> +7.3671397e+01 </wgt>
<wgt id='1805'> +7.4522622e+01 </wgt>
<wgt id='1806'> +7.3334276e+01 </wgt>
<wgt id='1807'> +7.4653065e+01 </wgt>
<wgt id='1808'> +7.3864919e+01 </wgt>
<wgt id='1809'> +7.4458261e+01 </wgt>
<wgt id='1810'> +7.4113000e+01 </wgt>
<wgt id='1811'> +7.4196726e+01 </wgt>
<wgt id='1812'> +7.3698741e+01 </wgt>
<wgt id='1813'> +7.4164421e+01 </wgt>
<wgt id='1814'> +7.4054076e+01 </wgt>
<wgt id='1815'> +7.2868972e+01 </wgt>
<wgt id='1816'> +7.4582294e+01 </wgt>
<wgt id='1817'> +7.7995487e+01 </wgt>
<wgt id='1818'> +7.0697910e+01 </wgt>
<wgt id='1819'> +7.3890248e+01 </wgt>
<wgt id='1820'> +7.2865691e+01 </wgt>
<wgt id='1821'> +7.3888189e+01 </wgt>
<wgt id='1822'> +7.4757383e+01 </wgt>
<wgt id='1823'> +7.4451169e+01 </wgt>
<wgt id='1824'> +6.4918648e+01 </wgt>
<wgt id='1825'> +6.4910606e+01 </wgt>
<wgt id='1826'> +6.4902607e+01 </wgt>
<wgt id='1827'> +6.4894561e+01 </wgt>
<wgt id='1828'> +6.4886295e+01 </wgt>
<wgt id='1829'> +6.4878189e+01 </wgt>
<wgt id='1830'> +6.4870362e+01 </wgt>
<wgt id='1831'> +6.4862342e+01 </wgt>
<wgt id='1832'> +6.4854042e+01 </wgt>
<wgt id='1833'> +6.4846016e+01 </wgt>
<wgt id='1834'> +6.4837986e+01 </wgt>
<wgt id='1835'> +6.4829893e+01 </wgt>
<wgt id='1836'> +6.4821791e+01 </wgt>
<wgt id='1837'> +6.4813675e+01 </wgt>
<wgt id='1838'> +6.4805590e+01 </wgt>
<wgt id='1839'> +6.4797638e+01 </wgt>
<wgt id='1840'> +6.4789541e+01 </wgt>
<wgt id='1841'> +6.4781542e+01 </wgt>
<wgt id='1842'> +6.4773333e+01 </wgt>
<wgt id='1843'> +6.4765377e+01 </wgt>
<wgt id='1844'> +6.4757218e+01 </wgt>
<wgt id='1845'> +6.4749066e+01 </wgt>
<wgt id='1846'> +6.4741095e+01 </wgt>
<wgt id='1847'> +6.4733071e+01 </wgt>
<wgt id='1848'> +6.4724970e+01 </wgt>
<wgt id='1849'> +6.4716717e+01 </wgt>
<wgt id='1850'> +6.4708678e+01 </wgt>
<wgt id='1851'> +6.4700802e+01 </wgt>
<wgt id='1852'> +6.4692753e+01 </wgt>
<wgt id='1853'> +6.4684736e+01 </wgt>
<wgt id='1854'> +6.4676493e+01 </wgt>
<wgt id='1855'> +7.0668403e+01 </wgt>
<wgt id='1856'> +6.9579612e+01 </wgt>
<wgt id='1857'> +7.1412490e+01 </wgt>
<wgt id='1858'> +6.9451005e+01 </wgt>
<wgt id='1859'> +7.0121491e+01 </wgt>
<wgt id='1860'> +6.9998013e+01 </wgt>
<wgt id='1861'> +7.1224261e+01 </wgt>
<wgt id='1862'> +7.2663239e+01 </wgt>
<wgt id='1863'> +7.1152172e+01 </wgt>
<wgt id='1864'> +7.0132378e+01 </wgt>
<wgt id='1865'> +6.9475027e+01 </wgt>
<wgt id='1866'> +7.2398536e+01 </wgt>
<wgt id='1867'> +7.0705694e+01 </wgt>
<wgt id='1868'> +6.9543844e+01 </wgt>
<wgt id='1869'> +7.1373113e+01 </wgt>
<wgt id='1870'> +7.0730168e+01 </wgt>
<wgt id='1871'> +7.2348331e+01 </wgt>
<wgt id='1872'> +6.9648951e+01 </wgt>
<wgt id='1873'> +7.0469903e+01 </wgt>
<wgt id='1874'> +7.1286749e+01 </wgt>
<wgt id='1875'> +7.1403991e+01 </wgt>
<wgt id='1876'> +7.0768554e+01 </wgt>
<wgt id='1877'> +7.0381415e+01 </wgt>
<wgt id='1878'> +7.0611015e+01 </wgt>
<wgt id='1879'> +7.0227969e+01 </wgt>
<wgt id='1880'> +7.0581009e+01 </wgt>
<wgt id='1881'> +7.0295480e+01 </wgt>
<wgt id='1882'> +7.1077348e+01 </wgt>
<wgt id='1883'> +7.0850232e+01 </wgt>
<wgt id='1884'> +7.0351724e+01 </wgt>
<wgt id='1885'> +7.0347653e+01 </wgt>
<wgt id='1886'> +7.0906903e+01 </wgt>
<wgt id='1887'> +7.0334048e+01 </wgt>
<wgt id='1888'> +7.0296023e+01 </wgt>
<wgt id='1889'> +7.0871173e+01 </wgt>
<wgt id='1890'> +7.0546880e+01 </wgt>
<wgt id='1891'> +7.0814460e+01 </wgt>
<wgt id='1892'> +7.0470632e+01 </wgt>
<wgt id='1893'> +7.0592427e+01 </wgt>
<wgt id='1894'> +7.0435624e+01 </wgt>
<wgt id='1895'> +7.0611081e+01 </wgt>
<wgt id='1896'> +7.0943556e+01 </wgt>
<wgt id='1897'> +7.0963712e+01 </wgt>
<wgt id='1898'> +7.0561088e+01 </wgt>
<wgt id='1899'> +7.0544160e+01 </wgt>
<wgt id='1900'> +7.0914047e+01 </wgt>
<wgt id='1901'> +7.0700049e+01 </wgt>
<wgt id='1902'> +7.0935076e+01 </wgt>
<wgt id='1903'> +7.0820503e+01 </wgt>
<wgt id='1904'> +7.0823392e+01 </wgt>
<wgt id='1905'> +7.0630457e+01 </wgt>
<wgt id='1906'> +7.0564684e+01 </wgt>
<wgt id='1907'> +7.0774876e+01 </wgt>
<wgt id='1908'> +7.0412093e+01 </wgt>
<wgt id='1909'> +7.0634797e+01 </wgt>
<wgt id='1910'> +7.0689137e+01 </wgt>
<wgt id='1911'> +7.0549016e+01 </wgt>
<wgt id='1912'> +7.0841324e+01 </wgt>
<wgt id='1913'> +7.0510876e+01 </wgt>
<wgt id='1914'> +7.0646960e+01 </wgt>
<wgt id='1915'> +7.0677995e+01 </wgt>
<wgt id='1916'> +7.0664868e+01 </wgt>
<wgt id='1917'> +7.0684486e+01 </wgt>
<wgt id='1918'> +7.0453392e+01 </wgt>
<wgt id='1919'> +7.0912115e+01 </wgt>
<wgt id='1920'> +7.0540389e+01 </wgt>
<wgt id='1921'> +7.0535784e+01 </wgt>
<wgt id='1922'> +7.0615572e+01 </wgt>
<wgt id='1923'> +7.0648604e+01 </wgt>
<wgt id='1924'> +7.0634332e+01 </wgt>
<wgt id='1925'> +7.0642498e+01 </wgt>
<wgt id='1926'> +7.0616814e+01 </wgt>
<wgt id='1927'> +7.0556542e+01 </wgt>
<wgt id='1928'> +7.0732485e+01 </wgt>
<wgt id='1929'> +7.0668763e+01 </wgt>
<wgt id='1930'> +7.0739865e+01 </wgt>
<wgt id='1931'> +7.0652217e+01 </wgt>
<wgt id='1932'> +7.0652466e+01 </wgt>
<wgt id='1933'> +7.0525129e+01 </wgt>
<wgt id='1934'> +7.0669248e+01 </wgt>
<wgt id='1935'> +7.0773287e+01 </wgt>
<wgt id='1936'> +7.0738856e+01 </wgt>
<wgt id='1937'> +7.0682079e+01 </wgt>
<wgt id='1938'> +7.0729812e+01 </wgt>
<wgt id='1939'> +7.0632193e+01 </wgt>
<wgt id='1940'> +7.0569587e+01 </wgt>
<wgt id='1941'> +7.0753420e+01 </wgt>
<wgt id='1942'> +7.0547869e+01 </wgt>
<wgt id='1943'> +7.0594138e+01 </wgt>
<wgt id='1944'> +7.0606673e+01 </wgt>
<wgt id='1945'> +7.0604062e+01 </wgt>
<wgt id='1946'> +7.0552827e+01 </wgt>
<wgt id='1947'> +7.0573710e+01 </wgt>
<wgt id='1948'> +7.0664310e+01 </wgt>
<wgt id='1949'> +7.0547273e+01 </wgt>
<wgt id='1950'> +7.0613983e+01 </wgt>
<wgt id='1951'> +7.0754787e+01 </wgt>
<wgt id='1952'> +7.0688355e+01 </wgt>
<wgt id='1953'> +7.0580919e+01 </wgt>
<wgt id='1954'> +7.0728174e+01 </wgt>
<wgt id='1955'> +7.0713696e+01 </wgt>
<wgt id='1956'> +7.0667837e+01 </wgt>
<wgt id='1957'> +7.0671390e+01 </wgt>
<wgt id='1958'> +7.0668970e+01 </wgt>
<wgt id='1959'> +7.0669079e+01 </wgt>
<wgt id='1960'> +7.0670082e+01 </wgt>
<wgt id='1961'> +7.0668645e+01 </wgt>
<wgt id='1962'> +7.0671956e+01 </wgt>
</rwgt>
</event>
<event npLO=" -1 " npNLO=" 1 ">
 7      1 +1.5146096e+02 1.18049200e+01 7.54677110e-03 1.71142000e-01
       21 -1    0    0  501  502 +0.0000000000e+00 +0.0000000000e+00 +1.1385792000e+02 1.1385792000e+02 0.0000000000e+00 0.0000e+00 9.0000e+00
       -1 -1    0    0    0  501 +0.0000000000e+00 +0.0000000000e+00 -2.9197483000e+01 2.9197483000e+01 0.0000000000e+00 0.0000e+00 9.0000e+00
       23  2    1    2    0    0 +6.9771142000e+00 -9.5223953000e+00 +4.7571344000e+01 1.0413296000e+02 9.1876458000e+01 0.0000e+00 0.0000e+00
       13  1    3    3    0    0 -2.2252264000e+01 +1.5676946000e+01 -1.4644030000e+01 3.0909181000e+01 0.0000000000e+00 0.0000e+00 9.0000e+00
      -13  1    3    3    0    0 +1.4479676000e+01 -1.1784141000e+01 +2.9427356000e+01 3.4849624000e+01 0.0000000000e+00 0.0000e+00 9.0000e+00
       22  1    3    3    0    0 +1.4749702000e+01 -1.3415200000e+01 +3.2788018000e+01 3.8374150000e+01 0.0000000000e+00 0.0000e+00 9.0000e+00
       -1  1    1    2    0  502 -6.9771142000e+00 +9.5223953000e+00 +3.7089097000e+01 3.8922451000e+01 0.0000000000e+00 0.0000e+00 9.0000e+00
#aMCatNLO 1  0  0  2  1 0.59893579E+02 0.00000000E+00 -9  7  0 0.00000000E+00 0.00000000E+00 0.00000000E+00 0.00000000E+00 0.00000000E+00
<rwgt>
<wgt id='1001'> +1.5146000e+02 </wgt>
<wgt id='1002'> +1.5146000e+02 </wgt>
<wgt id='1003'> +1.4123000e+02 </wgt>
<wgt id='1004'> +1.5496000e+02 </wgt>
<wgt id='1005'> +1.7261000e+02 </wgt>
<wgt id='1006'> +1.6027000e+02 </wgt>
<wgt id='1007'> +1.2841000e+02 </wgt>
<wgt id='1008'> +1.3880000e+02 </wgt>
<wgt id='1009'> +1.5657000e+02 </wgt>
<wgt id='1010'> +1.5670000e+02 </wgt>
<wgt id='1011'> +1.5319000e+02 </wgt>
<wgt id='1012'> +1.4299000e+02 </wgt>
<wgt id='1013'> +1.4364000e+02 </wgt>
<wgt id='1014'> +1.5280000e+02 </wgt>
<wgt id='1015'> +1.5991000e+02 </wgt>
<wgt id='1016'> +1.4806000e+02 </wgt>
<wgt id='1017'> +1.5168000e+02 </wgt>
<wgt id='1018'> +1.4649000e+02 </wgt>
<wgt id='1019'> +1.4459000e+02 </wgt>
<wgt id='1020'> +1.4069000e+02 </wgt>
<wgt id='1021'> +1.5203000e+02 </wgt>
<wgt id='1022'> +1.5429000e+02 </wgt>
<wgt id='1023'> +1.6587000e+02 </wgt>
<wgt id='1024'> +1.6072000e+02 </wgt>
<wgt id='1025'> +1.5848000e+02 </wgt>
<wgt id='1026'> +1.5153000e+02 </wgt>
<wgt id='1027'> +1.5188000e+02 </wgt>
<wgt id='1028'> +1.5598000e+02 </wgt>
<wgt id='1029'> +1.5213000e+02 </wgt>
<wgt id='1030'> +1.4143000e+02 </wgt>
<wgt id='1031'> +1.5321000e+02 </wgt>
<wgt id='1032'> +1.5932000e+02 </wgt>
<wgt id='1033'> +1.6275000e+02 </wgt>
<wgt id='1034'> +1.3904000e+02 </wgt>
<wgt id='1035'> +1.5651000e+02 </wgt>
<wgt id='1036'> +1.4828000e+02 </wgt>
<wgt id='1037'> +1.6684000e+02 </wgt>
<wgt id='1038'> +1.5087000e+02 </wgt>
<wgt id='1039'> +1.5340000e+02 </wgt>
<wgt id='1040'> +1.3956000e+02 </wgt>
<wgt id='1041'> +1.5579000e+02 </wgt>
<wgt id='1042'> +1.5448000e+02 </wgt>
<wgt id='1043'> +1.5618000e+02 </wgt>
<wgt id='1044'> +1.5261000e+02 </wgt>
<wgt id='1045'> +1.5208000e+02 </wgt>
<wgt id='1046'> +1.5338000e+02 </wgt>
<wgt id='1047'> +1.5639000e+02 </wgt>
<wgt id='1048'> +1.4836000e+02 </wgt>
<wgt id='1049'> +1.5031000e+02 </wgt>
<wgt id='1050'> +1.4689000e+02 </wgt>
<wgt id='1051'> +1.5841000e+02 </wgt>
<wgt id='1052'> +1.5876000e+02 </wgt>
<wgt id='1053'> +1.5682000e+02 </wgt>
<wgt id='1054'> +1.5074000e+02 </wgt>
<wgt id='1055'> +1.3947000e+02 </wgt>
<wgt id='1056'> +1.5367000e+02 </wgt>
<wgt id='1057'> +1.4956000e+02 </wgt>
<wgt id='1058'> +1.4758000e+02 </wgt>
<wgt id='1059'> +1.6181000e+02 </wgt>
<wgt id='1060'> +1.5599000e+02 </wgt>
<wgt id='1061'> +1.5949000e+02 </wgt>
<wgt id='1062'> +1.6018000e+02 </wgt>
<wgt id='1063'> +1.5213000e+02 </wgt>
<wgt id='1064'> +1.5407000e+02 </wgt>
<wgt id='1065'> +1.3523000e+02 </wgt>
<wgt id='1066'> +1.5201000e+02 </wgt>
<wgt id='1067'> +1.5210000e+02 </wgt>
<wgt id='1068'> +1.5086000e+02 </wgt>
<wgt id='1069'> +1.5150000e+02 </wgt>
<wgt id='1070'> +1.5729000e+02 </wgt>
<wgt id='1071'> +1.4305000e+02 </wgt>
<wgt id='1072'> +1.4759000e+02 </wgt>
<wgt id='1073'> +1.4976000e+02 </wgt>
<wgt id='1074'> +1.3402000e+02 </wgt>
<wgt id='1075'> +1.2342000e+02 </wgt>
<wgt id='1076'> +1.4943000e+02 </wgt>
<wgt id='1077'> +1.5074000e+02 </wgt>
<wgt id='1078'> +1.2982000e+02 </wgt>
<wgt id='1079'> +1.4484000e+02 </wgt>
<wgt id='1080'> +1.5779000e+02 </wgt>
<wgt id='1081'> +1.4320000e+02 </wgt>
<wgt id='1082'> +1.6180000e+02 </wgt>
<wgt id='1083'> +1.5671000e+02 </wgt>
<wgt id='1084'> +1.5732000e+02 </wgt>
<wgt id='1085'> +1.5046000e+02 </wgt>
<wgt id='1086'> +1.5256000e+02 </wgt>
<wgt id='1087'> +1.4876000e+02 </wgt>
<wgt id='1088'> +1.4939000e+02 </wgt>
<wgt id='1089'> +1.4968000e+02 </wgt>
<wgt id='1090'> +1.6002000e+02 </wgt>
<wgt id='1091'> +1.4379000e+02 </wgt>
<wgt id='1092'> +1.5251000e+02 </wgt>
<wgt id='1093'> +1.6435000e+02 </wgt>
<wgt id='1094'> +1.4971000e+02 </wgt>
<wgt id='1095'> +1.5148000e+02 </wgt>
<wgt id='1096'> +1.5149000e+02 </wgt>
<wgt id='1097'> +1.5367000e+02 </wgt>
<wgt id='1098'> +1.4562000e+02 </wgt>
<wgt id='1099'> +1.5527000e+02 </wgt>
<wgt id='1100'> +1.5296000e+02 </wgt>
<wgt id='1101'> +1.6019000e+02 </wgt>
<wgt id='1102'> +1.5488000e+02 </wgt>
<wgt id='1103'> +1.5225000e+02 </wgt>
<wgt id='1104'> +1.5185000e+02 </wgt>
<wgt id='1105'> +1.5146096e+02 </wgt>
<wgt id='1106'> +9.9462002e+01 </wgt>
<wgt id='1107'> +2.6489109e+01 </wgt>
<wgt id='1108'> -1.7500630e+02 </wgt>
<wgt id='1109'> -8.4925005e+01 </wgt>
<wgt id='1110'> -3.3181879e+02 </wgt>
<wgt id='1111'> +3.0425986e+02 </wgt>
<wgt id='1112'> +2.6631455e+02 </wgt>
<wgt id='1113'> +3.5530954e+02 </wgt>
<wgt id='1114'> +8.5902706e+01 </wgt>
<wgt id='1115'> +8.9061700e+01 </wgt>
<wgt id='1116'> +8.7627269e+01 </wgt>
<wgt id='1117'> +7.5099426e+01 </wgt>
<wgt id='1118'> +8.5109940e+01 </wgt>
<wgt id='1119'> +8.5185874e+01 </wgt>
<wgt id='1120'> +9.4998109e+01 </wgt>
<wgt id='1121'> +8.7714205e+01 </wgt>
<wgt id='1122'> +8.0179623e+01 </wgt>
<wgt id='1123'> +8.5990819e+01 </wgt>
<wgt id='1124'> +8.5595686e+01 </wgt>
<wgt id='1125'> +8.5499271e+01 </wgt>
<wgt id='1126'> +8.4788104e+01 </wgt>
<wgt id='1127'> +8.5612316e+01 </wgt>
<wgt id='1128'> +8.2380714e+01 </wgt>
<wgt id='1129'> +8.6856392e+01 </wgt>
<wgt id='1130'> +8.8372262e+01 </wgt>
<wgt id='1131'> +8.9353851e+01 </wgt>
<wgt id='1132'> +8.6231684e+01 </wgt>
<wgt id='1133'> +8.6488075e+01 </wgt>
<wgt id='1134'> +8.1962685e+01 </wgt>
<wgt id='1135'> +8.3621060e+01 </wgt>
<wgt id='1136'> +8.7856592e+01 </wgt>
<wgt id='1137'> +8.9606161e+01 </wgt>
<wgt id='1138'> +8.4123397e+01 </wgt>
<wgt id='1139'> +8.6595803e+01 </wgt>
<wgt id='1140'> +8.2416888e+01 </wgt>
<wgt id='1141'> +8.9983069e+01 </wgt>
<wgt id='1142'> +8.7357956e+01 </wgt>
<wgt id='1143'> +8.5911526e+01 </wgt>
<wgt id='1144'> +9.2704080e+01 </wgt>
<wgt id='1145'> +8.6130102e+01 </wgt>
<wgt id='1146'> +8.8485533e+01 </wgt>
<wgt id='1147'> +9.0531951e+01 </wgt>
<wgt id='1148'> +8.3321919e+01 </wgt>
<wgt id='1149'> +8.3748755e+01 </wgt>
<wgt id='1150'> +8.5917685e+01 </wgt>
<wgt id='1151'> +8.4530070e+01 </wgt>
<wgt id='1152'> +8.6253204e+01 </wgt>
<wgt id='1153'> +8.5802794e+01 </wgt>
<wgt id='1154'> +8.1106308e+01 </wgt>
<wgt id='1155'> +8.7598243e+01 </wgt>
<wgt id='1156'> +9.0069915e+01 </wgt>
<wgt id='1157'> +8.8351146e+01 </wgt>
<wgt id='1158'> +8.9673640e+01 </wgt>
<wgt id='1159'> +8.3901152e+01 </wgt>
<wgt id='1160'> +8.7423447e+01 </wgt>
<wgt id='1161'> +9.1256062e+01 </wgt>
<wgt id='1162'> +8.0963127e+01 </wgt>
<wgt id='1163'> +9.1986831e+01 </wgt>
<wgt id='1164'> +8.4194056e+01 </wgt>
<wgt id='1165'> +8.0928690e+01 </wgt>
<wgt id='1166'> +8.6317739e+01 </wgt>
<wgt id='1167'> +8.7712824e+01 </wgt>
<wgt id='1168'> +8.7637164e+01 </wgt>
<wgt id='1169'> +7.6875035e+01 </wgt>
<wgt id='1170'> +8.7793566e+01 </wgt>
<wgt id='1171'> +8.7564115e+01 </wgt>
<wgt id='1172'> +8.7196638e+01 </wgt>
<wgt id='1173'> +8.6443025e+01 </wgt>
<wgt id='1174'> +8.2899795e+01 </wgt>
<wgt id='1175'> +9.1636117e+01 </wgt>
<wgt id='1176'> +8.6829231e+01 </wgt>
<wgt id='1177'> +8.1442820e+01 </wgt>
<wgt id='1178'> +7.9445009e+01 </wgt>
<wgt id='1179'> +9.0409210e+01 </wgt>
<wgt id='1180'> +8.5661950e+01 </wgt>
<wgt id='1181'> +7.9446853e+01 </wgt>
<wgt id='1182'> +9.0846845e+01 </wgt>
<wgt id='1183'> +8.8804190e+01 </wgt>
<wgt id='1184'> +8.5550485e+01 </wgt>
<wgt id='1185'> +8.5296461e+01 </wgt>
<wgt id='1186'> +8.0974619e+01 </wgt>
<wgt id='1187'> +8.4979910e+01 </wgt>
<wgt id='1188'> +8.1772272e+01 </wgt>
<wgt id='1189'> +8.7780148e+01 </wgt>
<wgt id='1190'> +8.4501556e+01 </wgt>
<wgt id='1191'> +8.5488468e+01 </wgt>
<wgt id='1192'> +8.9034061e+01 </wgt>
<wgt id='1193'> +8.6511461e+01 </wgt>
<wgt id='1194'> +8.7028843e+01 </wgt>
<wgt id='1195'> +8.5362114e+01 </wgt>
<wgt id='1196'> +8.8372262e+01 </wgt>
<wgt id='1197'> +8.4482087e+01 </wgt>
<wgt id='1198'> +8.3731978e+01 </wgt>
<wgt id='1199'> +8.3816329e+01 </wgt>
<wgt id='1200'> +9.2916491e+01 </wgt>
<wgt id='1201'> +8.5066386e+01 </wgt>
<wgt id='1202'> +8.9963673e+01 </wgt>
<wgt id='1203'> +8.3229834e+01 </wgt>
<wgt id='1204'> +8.5450970e+01 </wgt>
<wgt id='1205'> +8.4476069e+01 </wgt>
<wgt id='1206'> +8.1629710e+01 </wgt>
<wgt id='1207'> +8.6425077e+01 </wgt>
<wgt id='1208'> +8.7984527e+01 </wgt>
<wgt id='1209'> +8.3169521e+01 </wgt>
<wgt id='1210'> +8.6169931e+01 </wgt>
<wgt id='1211'> +8.6042990e+01 </wgt>
<wgt id='1212'> +8.3816472e+01 </wgt>
<wgt id='1213'> +8.1451422e+01 </wgt>
<wgt id='1214'> +8.4977298e+01 </wgt>
<wgt id='1215'> +8.2958913e+01 </wgt>
<wgt id='1216'> +8.2724917e+01 </wgt>
<wgt id='1217'> +8.2683805e+01 </wgt>
<wgt id='1218'> +8.3055329e+01 </wgt>
<wgt id='1219'> +8.2542988e+01 </wgt>
<wgt id='1220'> +8.3680606e+01 </wgt>
<wgt id='1221'> +8.2901063e+01 </wgt>
<wgt id='1222'> +8.2002179e+01 </wgt>
<wgt id='1223'> +8.3381408e+01 </wgt>
<wgt id='1224'> +8.3423798e+01 </wgt>
<wgt id='1225'> +8.3288128e+01 </wgt>
<wgt id='1226'> +8.1899223e+01 </wgt>
<wgt id='1227'> +8.2330126e+01 </wgt>
<wgt id='1228'> +8.3086574e+01 </wgt>
<wgt id='1229'> +8.3561034e+01 </wgt>
<wgt id='1230'> +8.2575677e+01 </wgt>
<wgt id='1231'> +8.2355975e+01 </wgt>
<wgt id='1232'> +8.4128213e+01 </wgt>
<wgt id='1233'> +8.2269783e+01 </wgt>
<wgt id='1234'> +8.3203861e+01 </wgt>
<wgt id='1235'> +8.3084522e+01 </wgt>
<wgt id='1236'> +8.2662107e+01 </wgt>
<wgt id='1237'> +8.3165676e+01 </wgt>
<wgt id='1238'> +8.2366597e+01 </wgt>
<wgt id='1239'> +8.1606695e+01 </wgt>
<wgt id='1240'> +8.3697031e+01 </wgt>
<wgt id='1241'> +8.2756962e+01 </wgt>
<wgt id='1242'> +8.3062879e+01 </wgt>
<wgt id='1243'> +8.2366109e+01 </wgt>
<wgt id='1244'> +8.2964192e+01 </wgt>
<wgt id='1245'> +8.3026439e+01 </wgt>
<wgt id='1246'> +8.1292724e+01 </wgt>
<wgt id='1247'> +8.3149898e+01 </wgt>
<wgt id='1248'> +8.2865426e+01 </wgt>
<wgt id='1249'> +8.2619335e+01 </wgt>
<wgt id='1250'> +8.2976947e+01 </wgt>
<wgt id='1251'> +8.3212276e+01 </wgt>
<wgt id='1252'> +8.2975585e+01 </wgt>
<wgt id='1253'> +8.2905475e+01 </wgt>
<wgt id='1254'> +8.3201748e+01 </wgt>
<wgt id='1255'> +8.2782448e+01 </wgt>
<wgt id='1256'> +8.2744638e+01 </wgt>
<wgt id='1257'> +8.2990807e+01 </wgt>
<wgt id='1258'> +8.2185114e+01 </wgt>
<wgt id='1259'> +8.2730743e+01 </wgt>
<wgt id='1260'> +8.2846844e+01 </wgt>
<wgt id='1261'> +8.2811535e+01 </wgt>
<wgt id='1262'> +8.3212848e+01 </wgt>
<wgt id='1263'> +8.2923655e+01 </wgt>
<wgt id='1264'> +8.2394776e+01 </wgt>
<wgt id='1265'> +8.2456192e+01 </wgt>
<wgt id='1266'> +8.2904866e+01 </wgt>
<wgt id='1267'> +8.2633652e+01 </wgt>
<wgt id='1268'> +8.2231072e+01 </wgt>
<wgt id='1269'> +8.2499267e+01 </wgt>
<wgt id='1270'> +8.2498443e+01 </wgt>
<wgt id='1271'> +8.2806322e+01 </wgt>
<wgt id='1272'> +8.2665165e+01 </wgt>
<wgt id='1273'> +8.2678124e+01 </wgt>
<wgt id='1274'> +8.2790310e+01 </wgt>
<wgt id='1275'> +8.2860854e+01 </wgt>
<wgt id='1276'> +8.2676969e+01 </wgt>
<wgt id='1277'> +8.2842835e+01 </wgt>
<wgt id='1278'> +8.2877282e+01 </wgt>
<wgt id='1279'> +8.2718708e+01 </wgt>
<wgt id='1280'> +8.2550615e+01 </wgt>
<wgt id='1281'> +8.2636785e+01 </wgt>
<wgt id='1282'> +8.2669061e+01 </wgt>
<wgt id='1283'> +8.2889509e+01 </wgt>
<wgt id='1284'> +8.2643365e+01 </wgt>
<wgt id='1285'> +8.2747736e+01 </wgt>
<wgt id='1286'> +8.2664235e+01 </wgt>
<wgt id='1287'> +8.2634534e+01 </wgt>
<wgt id='1288'> +8.2730868e+01 </wgt>
<wgt id='1289'> +8.2978213e+01 </wgt>
<wgt id='1290'> +8.2713968e+01 </wgt>
<wgt id='1291'> +8.2437289e+01 </wgt>
<wgt id='1292'> +8.2624940e+01 </wgt>
<wgt id='1293'> +8.2828609e+01 </wgt>
<wgt id='1294'> +8.2791819e+01 </wgt>
<wgt id='1295'> +8.2573864e+01 </wgt>
<wgt id='1296'> +8.2775997e+01 </wgt>
<wgt id='1297'> +8.2733427e+01 </wgt>
<wgt id='1298'> +8.2806141e+01 </wgt>
<wgt id='1299'> +8.2899699e+01 </wgt>
<wgt id='1300'> +8.2647850e+01 </wgt>
<wgt id='1301'> +8.2789439e+01 </wgt>
<wgt id='1302'> +8.2701088e+01 </wgt>
<wgt id='1303'> +8.2797363e+01 </wgt>
<wgt id='1304'> +8.2691920e+01 </wgt>
<wgt id='1305'> +8.2655286e+01 </wgt>
<wgt id='1306'> +8.2744201e+01 </wgt>
<wgt id='1307'> +8.2529839e+01 </wgt>
<wgt id='1308'> +8.2651232e+01 </wgt>
<wgt id='1309'> +8.2560467e+01 </wgt>
<wgt id='1310'> +8.2835133e+01 </wgt>
<wgt id='1311'> +8.2797294e+01 </wgt>
<wgt id='1312'> +8.2815478e+01 </wgt>
<wgt id='1313'> +8.2657484e+01 </wgt>
<wgt id='1314'> +8.2737029e+01 </wgt>
<wgt id='1315'> +8.2782208e+01 </wgt>
<wgt id='1316'> +8.2741550e+01 </wgt>
<wgt id='1317'> +8.2830958e+01 </wgt>
<wgt id='1318'> +8.2352365e+01 </wgt>
<wgt id='1319'> +9.9977513e+01 </wgt>
<wgt id='1320'> +7.3620397e+01 </wgt>
<wgt id='1321'> +7.5963188e+01 </wgt>
<wgt id='1322'> +6.9913794e+01 </wgt>
<wgt id='1323'> +7.4823104e+01 </wgt>
<wgt id='1324'> +7.5072653e+01 </wgt>
<wgt id='1325'> +7.6846849e+01 </wgt>
<wgt id='1326'> +7.1892744e+01 </wgt>
<wgt id='1327'> +7.7052324e+01 </wgt>
<wgt id='1328'> +7.2672567e+01 </wgt>
<wgt id='1329'> +7.3508248e+01 </wgt>
<wgt id='1330'> +7.2992483e+01 </wgt>
<wgt id='1331'> +7.2377465e+01 </wgt>
<wgt id='1332'> +7.4932798e+01 </wgt>
<wgt id='1333'> +7.0117248e+01 </wgt>
<wgt id='1334'> +7.5193026e+01 </wgt>
<wgt id='1335'> +7.5188545e+01 </wgt>
<wgt id='1336'> +7.1463025e+01 </wgt>
<wgt id='1337'> +7.6946031e+01 </wgt>
<wgt id='1338'> +6.9912915e+01 </wgt>
<wgt id='1339'> +7.3508346e+01 </wgt>
<wgt id='1340'> +7.3610340e+01 </wgt>
<wgt id='1341'> +7.3509793e+01 </wgt>
<wgt id='1342'> +7.3711596e+01 </wgt>
<wgt id='1343'> +7.6932588e+01 </wgt>
<wgt id='1344'> +7.0222017e+01 </wgt>
<wgt id='1345'> +7.5570781e+01 </wgt>
<wgt id='1346'> +7.2237874e+01 </wgt>
<wgt id='1347'> +7.1899483e+01 </wgt>
<wgt id='1348'> +7.5763955e+01 </wgt>
<wgt id='1349'> +7.2477670e+01 </wgt>
<wgt id='1350'> +7.3998816e+01 </wgt>
<wgt id='1351'> +7.2262727e+01 </wgt>
<wgt id='1352'> +7.5344049e+01 </wgt>
<wgt id='1353'> +7.2552913e+01 </wgt>
<wgt id='1354'> +7.5918606e+01 </wgt>
<wgt id='1355'> +7.6854107e+01 </wgt>
<wgt id='1356'> +7.0575608e+01 </wgt>
<wgt id='1357'> +7.3292607e+01 </wgt>
<wgt id='1358'> +7.3460717e+01 </wgt>
<wgt id='1359'> +7.2822517e+01 </wgt>
<wgt id='1360'> +7.3524151e+01 </wgt>
<wgt id='1361'> +7.2965161e+01 </wgt>
<wgt id='1362'> +7.4554733e+01 </wgt>
<wgt id='1363'> +7.3627861e+01 </wgt>
<wgt id='1364'> +7.3183547e+01 </wgt>
<wgt id='1365'> +7.3527668e+01 </wgt>
<wgt id='1366'> +7.3444087e+01 </wgt>
<wgt id='1367'> +7.2080310e+01 </wgt>
<wgt id='1368'> +7.5468791e+01 </wgt>
<wgt id='1369'> +7.3427245e+01 </wgt>
<wgt id='1370'> +7.5152176e+01 </wgt>
<wgt id='1371'> +7.2686520e+01 </wgt>
<wgt id='1372'> +7.2185148e+01 </wgt>
<wgt id='1373'> +7.1779094e+01 </wgt>
<wgt id='1374'> +7.2253544e+01 </wgt>
<wgt id='1375'> +7.2539231e+01 </wgt>
<wgt id='1376'> +7.3288533e+01 </wgt>
<wgt id='1377'> +7.2800213e+01 </wgt>
<wgt id='1378'> +7.4306083e+01 </wgt>
<wgt id='1379'> +7.9024624e+01 </wgt>
<wgt id='1380'> +7.7645133e+01 </wgt>
<wgt id='1381'> +8.0477975e+01 </wgt>
<wgt id='1382'> +6.3624603e+01 </wgt>
<wgt id='1383'> +7.1406001e+01 </wgt>
<wgt id='1384'> +8.1573590e+01 </wgt>
<wgt id='1385'> +5.2416484e+01 </wgt>
<wgt id='1386'> +5.2290491e+01 </wgt>
<wgt id='1387'> +5.2551912e+01 </wgt>
<wgt id='1388'> +5.1374650e+01 </wgt>
<wgt id='1389'> +5.4217465e+01 </wgt>
<wgt id='1390'> +5.3128379e+01 </wgt>
<wgt id='1391'> +5.1568120e+01 </wgt>
<wgt id='1392'> +5.2508283e+01 </wgt>
<wgt id='1393'> +5.2361124e+01 </wgt>
<wgt id='1394'> +5.2090249e+01 </wgt>
<wgt id='1395'> +5.2815229e+01 </wgt>
<wgt id='1396'> +5.2398880e+01 </wgt>
<wgt id='1397'> +5.2410702e+01 </wgt>
<wgt id='1398'> +5.1999201e+01 </wgt>
<wgt id='1399'> +5.2696125e+01 </wgt>
<wgt id='1400'> +5.2714332e+01 </wgt>
<wgt id='1401'> +5.2156567e+01 </wgt>
<wgt id='1402'> +5.2857007e+01 </wgt>
<wgt id='1403'> +5.2206845e+01 </wgt>
<wgt id='1404'> +5.0680213e+01 </wgt>
<wgt id='1405'> +5.3274090e+01 </wgt>
<wgt id='1406'> +5.1640244e+01 </wgt>
<wgt id='1407'> +5.3767223e+01 </wgt>
<wgt id='1408'> +5.1775752e+01 </wgt>
<wgt id='1409'> +5.3698430e+01 </wgt>
<wgt id='1410'> +5.2525674e+01 </wgt>
<wgt id='1411'> +5.2097975e+01 </wgt>
<wgt id='1412'> +5.3092761e+01 </wgt>
<wgt id='1413'> +5.1191588e+01 </wgt>
<wgt id='1414'> +5.2164544e+01 </wgt>
<wgt id='1415'> +5.2618158e+01 </wgt>
<wgt id='1416'> +5.1566645e+01 </wgt>
<wgt id='1417'> +5.2995650e+01 </wgt>
<wgt id='1418'> +5.2172310e+01 </wgt>
<wgt id='1419'> +5.2857318e+01 </wgt>
<wgt id='1420'> +5.2304967e+01 </wgt>
<wgt id='1421'> +5.2229853e+01 </wgt>
<wgt id='1422'> +5.2938469e+01 </wgt>
<wgt id='1423'> +5.1884831e+01 </wgt>
<wgt id='1424'> +5.2117199e+01 </wgt>
<wgt id='1425'> +5.2613854e+01 </wgt>
<wgt id='1426'> +5.3491088e+01 </wgt>
<wgt id='1427'> +5.3276063e+01 </wgt>
<wgt id='1428'> +5.1919633e+01 </wgt>
<wgt id='1429'> +5.1331926e+01 </wgt>
<wgt id='1430'> +5.3541851e+01 </wgt>
<wgt id='1431'> +5.3585251e+01 </wgt>
<wgt id='1432'> +5.3518925e+01 </wgt>
<wgt id='1433'> +5.4005865e+01 </wgt>
<wgt id='1434'> +5.3070399e+01 </wgt>
<wgt id='1435'> +5.2335512e+01 </wgt>
<wgt id='1436'> +7.4972638e+01 </wgt>
<wgt id='1437'> +7.4956657e+01 </wgt>
<wgt id='1438'> +7.5117280e+01 </wgt>
<wgt id='1439'> +7.4981106e+01 </wgt>
<wgt id='1440'> +7.4589933e+01 </wgt>
<wgt id='1441'> +7.5625455e+01 </wgt>
<wgt id='1442'> +7.4699428e+01 </wgt>
<wgt id='1443'> +7.4834097e+01 </wgt>
<wgt id='1444'> +7.5140506e+01 </wgt>
<wgt id='1445'> +7.4579414e+01 </wgt>
<wgt id='1446'> +7.5422512e+01 </wgt>
<wgt id='1447'> +7.4794514e+01 </wgt>
<wgt id='1448'> +7.4730254e+01 </wgt>
<wgt id='1449'> +7.5115123e+01 </wgt>
<wgt id='1450'> +7.5003808e+01 </wgt>
<wgt id='1451'> +7.4890948e+01 </wgt>
<wgt id='1452'> +7.5101619e+01 </wgt>
<wgt id='1453'> +7.5466433e+01 </wgt>
<wgt id='1454'> +7.5129100e+01 </wgt>
<wgt id='1455'> +7.5534741e+01 </wgt>
<wgt id='1456'> +7.4813440e+01 </wgt>
<wgt id='1457'> +7.5509658e+01 </wgt>
<wgt id='1458'> +7.4575196e+01 </wgt>
<wgt id='1459'> +7.4589973e+01 </wgt>
<wgt id='1460'> +7.5022254e+01 </wgt>
<wgt id='1461'> +7.4285390e+01 </wgt>
<wgt id='1462'> +7.4041600e+01 </wgt>
<wgt id='1463'> +7.5364875e+01 </wgt>
<wgt id='1464'> +7.4821336e+01 </wgt>
<wgt id='1465'> +7.3285466e+01 </wgt>
<wgt id='1466'> +7.3496306e+01 </wgt>
<wgt id='1467'> +7.3189163e+01 </wgt>
<wgt id='1468'> +7.3131637e+01 </wgt>
<wgt id='1469'> +7.4338520e+01 </wgt>
<wgt id='1470'> +7.3084932e+01 </wgt>
<wgt id='1471'> +7.3657564e+01 </wgt>
<wgt id='1472'> +7.2689931e+01 </wgt>
<wgt id='1473'> +7.3528810e+01 </wgt>
<wgt id='1474'> +7.3025219e+01 </wgt>
<wgt id='1475'> +7.4010254e+01 </wgt>
<wgt id='1476'> +7.4619020e+01 </wgt>
<wgt id='1477'> +7.1556982e+01 </wgt>
<wgt id='1478'> +7.2839447e+01 </wgt>
<wgt id='1479'> +7.2470384e+01 </wgt>
<wgt id='1480'> +7.2769809e+01 </wgt>
<wgt id='1481'> +7.2986861e+01 </wgt>
<wgt id='1482'> +7.2695266e+01 </wgt>
<wgt id='1483'> +7.3414368e+01 </wgt>
<wgt id='1484'> +7.5172781e+01 </wgt>
<wgt id='1485'> +7.3082584e+01 </wgt>
<wgt id='1486'> +7.4483909e+01 </wgt>
<wgt id='1487'> +7.4719129e+01 </wgt>
<wgt id='1488'> +7.4459862e+01 </wgt>
<wgt id='1489'> +7.3242042e+01 </wgt>
<wgt id='1490'> +7.3065675e+01 </wgt>
<wgt id='1491'> +7.4930811e+01 </wgt>
<wgt id='1492'> +7.4100619e+01 </wgt>
<wgt id='1493'> +7.2981681e+01 </wgt>
<wgt id='1494'> +7.2571550e+01 </wgt>
<wgt id='1495'> +7.3635002e+01 </wgt>
<wgt id='1496'> +7.3059268e+01 </wgt>
<wgt id='1497'> +7.3446475e+01 </wgt>
<wgt id='1498'> +7.4030681e+01 </wgt>
<wgt id='1499'> +7.3252792e+01 </wgt>
<wgt id='1500'> +7.3411747e+01 </wgt>
<wgt id='1501'> +7.3628359e+01 </wgt>
<wgt id='1502'> +7.3474139e+01 </wgt>
<wgt id='1503'> +7.3404303e+01 </wgt>
<wgt id='1504'> +7.3479420e+01 </wgt>
<wgt id='1505'> +7.3414968e+01 </wgt>
<wgt id='1506'> +7.3351101e+01 </wgt>
<wgt id='1507'> +7.3646570e+01 </wgt>
<wgt id='1508'> +7.3243432e+01 </wgt>
<wgt id='1509'> +7.3535455e+01 </wgt>
<wgt id='1510'> +7.3267670e+01 </wgt>
<wgt id='1511'> +7.3531533e+01 </wgt>
<wgt id='1512'> +7.3536052e+01 </wgt>
<wgt id='1513'> +7.3595964e+01 </wgt>
<wgt id='1514'> +7.3597214e+01 </wgt>
<wgt id='1515'> +7.3469091e+01 </wgt>
<wgt id='1516'> +7.3428135e+01 </wgt>
<wgt id='1517'> +7.3592349e+01 </wgt>
<wgt id='1518'> +7.3564318e+01 </wgt>
<wgt id='1519'> +7.3463142e+01 </wgt>
<wgt id='1520'> +7.3353784e+01 </wgt>
<wgt id='1521'> +7.3551716e+01 </wgt>
<wgt id='1522'> +7.3389944e+01 </wgt>
<wgt id='1523'> +7.3385296e+01 </wgt>
<wgt id='1524'> +7.3644076e+01 </wgt>
<wgt id='1525'> +7.3321478e+01 </wgt>
<wgt id='1526'> +7.3421643e+01 </wgt>
<wgt id='1527'> +7.3666541e+01 </wgt>
<wgt id='1528'> +7.3581598e+01 </wgt>
<wgt id='1529'> +7.3468408e+01 </wgt>
<wgt id='1530'> +7.3506975e+01 </wgt>
<wgt id='1531'> +7.3551473e+01 </wgt>
<wgt id='1532'> +7.3514192e+01 </wgt>
<wgt id='1533'> +7.3515673e+01 </wgt>
<wgt id='1534'> +7.3556704e+01 </wgt>
<wgt id='1535'> +7.3532650e+01 </wgt>
<wgt id='1536'> +7.3539058e+01 </wgt>
<wgt id='1537'> +7.3550547e+01 </wgt>
<wgt id='1538'> +7.3549345e+01 </wgt>
<wgt id='1539'> +7.3525400e+01 </wgt>
<wgt id='1540'> +7.3423451e+01 </wgt>
<wgt id='1541'> +7.3575174e+01 </wgt>
<wgt id='1542'> +7.3590616e+01 </wgt>
<wgt id='1543'> +7.3536212e+01 </wgt>
<wgt id='1544'> +7.3483504e+01 </wgt>
<wgt id='1545'> +7.3575396e+01 </wgt>
<wgt id='1546'> +7.3578276e+01 </wgt>
<wgt id='1547'> +7.3453541e+01 </wgt>
<wgt id='1548'> +7.3523984e+01 </wgt>
<wgt id='1549'> +7.3579863e+01 </wgt>
<wgt id='1550'> +7.3572135e+01 </wgt>
<wgt id='1551'> +7.3592511e+01 </wgt>
<wgt id='1552'> +7.3493960e+01 </wgt>
<wgt id='1553'> +7.3571710e+01 </wgt>
<wgt id='1554'> +7.3496316e+01 </wgt>
<wgt id='1555'> +7.3490798e+01 </wgt>
<wgt id='1556'> +7.3384620e+01 </wgt>
<wgt id='1557'> +7.3463361e+01 </wgt>
<wgt id='1558'> +7.3558652e+01 </wgt>
<wgt id='1559'> +7.3495603e+01 </wgt>
<wgt id='1560'> +7.3529708e+01 </wgt>
<wgt id='1561'> +7.3500207e+01 </wgt>
<wgt id='1562'> +7.3495750e+01 </wgt>
<wgt id='1563'> +7.3470124e+01 </wgt>
<wgt id='1564'> +7.3517648e+01 </wgt>
<wgt id='1565'> +7.3499338e+01 </wgt>
<wgt id='1566'> +7.3462889e+01 </wgt>
<wgt id='1567'> +7.3138615e+01 </wgt>
<wgt id='1568'> +7.3942407e+01 </wgt>
<wgt id='1569'> +8.1359466e+01 </wgt>
<wgt id='1570'> +8.1257124e+01 </wgt>
<wgt id='1571'> +8.1622429e+01 </wgt>
<wgt id='1572'> +8.0841001e+01 </wgt>
<wgt id='1573'> +8.1432471e+01 </wgt>
<wgt id='1574'> +8.2235287e+01 </wgt>
<wgt id='1575'> +8.1677300e+01 </wgt>
<wgt id='1576'> +8.1759681e+01 </wgt>
<wgt id='1577'> +8.1191066e+01 </wgt>
<wgt id='1578'> +8.1022317e+01 </wgt>
<wgt id='1579'> +8.0720113e+01 </wgt>
<wgt id='1580'> +8.3369433e+01 </wgt>
<wgt id='1581'> +8.1743975e+01 </wgt>
<wgt id='1582'> +8.1511986e+01 </wgt>
<wgt id='1583'> +8.0719965e+01 </wgt>
<wgt id='1584'> +8.4208404e+01 </wgt>
<wgt id='1585'> +8.1229399e+01 </wgt>
<wgt id='1586'> +8.1200813e+01 </wgt>
<wgt id='1587'> +8.1270712e+01 </wgt>
<wgt id='1588'> +8.0609820e+01 </wgt>
<wgt id='1589'> +8.1462318e+01 </wgt>
<wgt id='1590'> +8.1633240e+01 </wgt>
<wgt id='1591'> +8.0022455e+01 </wgt>
<wgt id='1592'> +8.1939407e+01 </wgt>
<wgt id='1593'> +7.9704304e+01 </wgt>
<wgt id='1594'> +8.0801501e+01 </wgt>
<wgt id='1595'> +8.1240826e+01 </wgt>
<wgt id='1596'> +8.1171140e+01 </wgt>
<wgt id='1597'> +8.1970182e+01 </wgt>
<wgt id='1598'> +8.1157750e+01 </wgt>
<wgt id='1599'> +8.0815230e+01 </wgt>
<wgt id='1600'> +8.1573630e+01 </wgt>
<wgt id='1601'> +8.0947895e+01 </wgt>
<wgt id='1602'> +8.1977060e+01 </wgt>
<wgt id='1603'> +8.1483046e+01 </wgt>
<wgt id='1604'> +8.1774454e+01 </wgt>
<wgt id='1605'> +8.1728734e+01 </wgt>
<wgt id='1606'> +8.1646509e+01 </wgt>
<wgt id='1607'> +8.1977876e+01 </wgt>
<wgt id='1608'> +8.1212508e+01 </wgt>
<wgt id='1609'> +8.1808244e+01 </wgt>
<wgt id='1610'> +8.1344794e+01 </wgt>
<wgt id='1611'> +8.1559848e+01 </wgt>
<wgt id='1612'> +8.1218742e+01 </wgt>
<wgt id='1613'> +8.1188350e+01 </wgt>
<wgt id='1614'> +8.1235264e+01 </wgt>
<wgt id='1615'> +8.1362488e+01 </wgt>
<wgt id='1616'> +8.1291985e+01 </wgt>
<wgt id='1617'> +8.1182828e+01 </wgt>
<wgt id='1618'> +8.1456439e+01 </wgt>
<wgt id='1619'> +8.0999274e+01 </wgt>
<wgt id='1620'> +8.1309209e+01 </wgt>
<wgt id='1621'> +8.1510196e+01 </wgt>
<wgt id='1622'> +8.1347866e+01 </wgt>
<wgt id='1623'> +8.1374943e+01 </wgt>
<wgt id='1624'> +8.1222430e+01 </wgt>
<wgt id='1625'> +8.1518097e+01 </wgt>
<wgt id='1626'> +8.1364310e+01 </wgt>
<wgt id='1627'> +8.1368226e+01 </wgt>
<wgt id='1628'> +8.1377145e+01 </wgt>
<wgt id='1629'> +8.1427643e+01 </wgt>
<wgt id='1630'> +8.1308442e+01 </wgt>
<wgt id='1631'> +8.1342683e+01 </wgt>
<wgt id='1632'> +8.1500818e+01 </wgt>
<wgt id='1633'> +8.1274421e+01 </wgt>
<wgt id='1634'> +8.1440100e+01 </wgt>
<wgt id='1635'> +8.1401155e+01 </wgt>
<wgt id='1636'> +8.1406612e+01 </wgt>
<wgt id='1637'> +8.1528404e+01 </wgt>
<wgt id='1638'> +8.1292114e+01 </wgt>
<wgt id='1639'> +8.1279782e+01 </wgt>
<wgt id='1640'> +8.1339238e+01 </wgt>
<wgt id='1641'> +8.1353759e+01 </wgt>
<wgt id='1642'> +8.1262360e+01 </wgt>
<wgt id='1643'> +8.1415567e+01 </wgt>
<wgt id='1644'> +8.1350645e+01 </wgt>
<wgt id='1645'> +8.1414249e+01 </wgt>
<wgt id='1646'> +8.1332585e+01 </wgt>
<wgt id='1647'> +8.1401830e+01 </wgt>
<wgt id='1648'> +8.1400674e+01 </wgt>
<wgt id='1649'> +8.1408725e+01 </wgt>
<wgt id='1650'> +8.1375441e+01 </wgt>
<wgt id='1651'> +8.1376150e+01 </wgt>
<wgt id='1652'> +8.1347940e+01 </wgt>
<wgt id='1653'> +8.1396649e+01 </wgt>
<wgt id='1654'> +8.1259192e+01 </wgt>
<wgt id='1655'> +8.1400986e+01 </wgt>
<wgt id='1656'> +8.1302270e+01 </wgt>
<wgt id='1657'> +8.1354902e+01 </wgt>
<wgt id='1658'> +8.1382365e+01 </wgt>
<wgt id='1659'> +8.1323822e+01 </wgt>
<wgt id='1660'> +8.1391372e+01 </wgt>
<wgt id='1661'> +8.1417996e+01 </wgt>
<wgt id='1662'> +8.1348486e+01 </wgt>
<wgt id='1663'> +8.1397857e+01 </wgt>
<wgt id='1664'> +8.1329632e+01 </wgt>
<wgt id='1665'> +8.1268553e+01 </wgt>
<wgt id='1666'> +8.1375355e+01 </wgt>
<wgt id='1667'> +8.1425359e+01 </wgt>
<wgt id='1668'> +8.1365750e+01 </wgt>
<wgt id='1669'> +8.1288865e+01 </wgt>
<wgt id='1670'> +8.0231816e+01 </wgt>
<wgt id='1671'> +8.1901785e+01 </wgt>
<wgt id='1672'> +7.3461711e+01 </wgt>
<wgt id='1673'> +7.3444688e+01 </wgt>
<wgt id='1674'> +7.2022136e+01 </wgt>
<wgt id='1675'> +7.3302387e+01 </wgt>
<wgt id='1676'> +7.2960455e+01 </wgt>
<wgt id='1677'> +7.3909973e+01 </wgt>
<wgt id='1678'> +7.4022129e+01 </wgt>
<wgt id='1679'> +7.3610402e+01 </wgt>
<wgt id='1680'> +7.3898752e+01 </wgt>
<wgt id='1681'> +7.4288038e+01 </wgt>
<wgt id='1682'> +7.3611840e+01 </wgt>
<wgt id='1683'> +7.2591017e+01 </wgt>
<wgt id='1684'> +7.3621538e+01 </wgt>
<wgt id='1685'> +7.3629145e+01 </wgt>
<wgt id='1686'> +6.9809126e+01 </wgt>
<wgt id='1687'> +7.3879567e+01 </wgt>
<wgt id='1688'> +7.3677217e+01 </wgt>
<wgt id='1689'> +7.2931806e+01 </wgt>
<wgt id='1690'> +7.3517178e+01 </wgt>
<wgt id='1691'> +7.3810388e+01 </wgt>
<wgt id='1692'> +7.3513173e+01 </wgt>
<wgt id='1693'> +7.3408018e+01 </wgt>
<wgt id='1694'> +7.3316142e+01 </wgt>
<wgt id='1695'> +7.3395150e+01 </wgt>
<wgt id='1696'> +7.2888748e+01 </wgt>
<wgt id='1697'> +7.3630525e+01 </wgt>
<wgt id='1698'> +7.2972563e+01 </wgt>
<wgt id='1699'> +7.3579021e+01 </wgt>
<wgt id='1700'> +7.3344311e+01 </wgt>
<wgt id='1701'> +7.3388707e+01 </wgt>
<wgt id='1702'> +7.3553466e+01 </wgt>
<wgt id='1703'> +7.3138615e+01 </wgt>
<wgt id='1704'> +7.3942407e+01 </wgt>
<wgt id='1705'> +8.1353209e+01 </wgt>
<wgt id='1706'> +8.1219064e+01 </wgt>
<wgt id='1707'> +8.5514539e+01 </wgt>
<wgt id='1708'> +8.1013624e+01 </wgt>
<wgt id='1709'> +8.1403348e+01 </wgt>
<wgt id='1710'> +8.0707980e+01 </wgt>
<wgt id='1711'> +8.1289283e+01 </wgt>
<wgt id='1712'> +8.1410175e+01 </wgt>
<wgt id='1713'> +8.1075277e+01 </wgt>
<wgt id='1714'> +8.1260981e+01 </wgt>
<wgt id='1715'> +8.1648463e+01 </wgt>
<wgt id='1716'> +8.1547601e+01 </wgt>
<wgt id='1717'> +8.1571183e+01 </wgt>
<wgt id='1718'> +8.1806112e+01 </wgt>
<wgt id='1719'> +8.1225413e+01 </wgt>
<wgt id='1720'> +8.0991083e+01 </wgt>
<wgt id='1721'> +8.0980327e+01 </wgt>
<wgt id='1722'> +8.1385261e+01 </wgt>
<wgt id='1723'> +8.1250898e+01 </wgt>
<wgt id='1724'> +8.1525518e+01 </wgt>
<wgt id='1725'> +8.1409241e+01 </wgt>
<wgt id='1726'> +8.0814949e+01 </wgt>
<wgt id='1727'> +8.1589160e+01 </wgt>
<wgt id='1728'> +8.1361282e+01 </wgt>
<wgt id='1729'> +8.1628728e+01 </wgt>
<wgt id='1730'> +8.1699431e+01 </wgt>
<wgt id='1731'> +8.1513815e+01 </wgt>
<wgt id='1732'> +8.1345482e+01 </wgt>
<wgt id='1733'> +8.1999458e+01 </wgt>
<wgt id='1734'> +8.1337840e+01 </wgt>
<wgt id='1735'> +8.1876876e+01 </wgt>
<wgt id='1736'> +8.0231816e+01 </wgt>
<wgt id='1737'> +8.1901785e+01 </wgt>
<wgt id='1738'> +8.5322887e+01 </wgt>
<wgt id='1739'> +8.5557482e+01 </wgt>
<wgt id='1740'> +8.5089359e+01 </wgt>
<wgt id='1741'> +8.5383033e+01 </wgt>
<wgt id='1742'> +8.5262518e+01 </wgt>
<wgt id='1743'> +8.5443831e+01 </wgt>
<wgt id='1744'> +8.5201737e+01 </wgt>
<wgt id='1745'> +8.5061630e+01 </wgt>
<wgt id='1746'> +8.5566616e+01 </wgt>
<wgt id='1747'> +8.5762061e+01 </wgt>
<wgt id='1748'> +8.4883382e+01 </wgt>
<wgt id='1749'> +8.5731410e+01 </wgt>
<wgt id='1750'> +8.4863658e+01 </wgt>
<wgt id='1751'> +8.5187471e+01 </wgt>
<wgt id='1752'> +8.5453757e+01 </wgt>
<wgt id='1753'> +8.5222310e+01 </wgt>
<wgt id='1754'> +8.5454611e+01 </wgt>
<wgt id='1755'> +8.4986695e+01 </wgt>
<wgt id='1756'> +8.5435583e+01 </wgt>
<wgt id='1757'> +8.5028090e+01 </wgt>
<wgt id='1758'> +8.5683454e+01 </wgt>
<wgt id='1759'> +8.5354944e+01 </wgt>
<wgt id='1760'> +8.5132096e+01 </wgt>
<wgt id='1761'> +8.4787554e+01 </wgt>
<wgt id='1762'> +8.5359028e+01 </wgt>
<wgt id='1763'> +8.5731135e+01 </wgt>
<wgt id='1764'> +8.5056432e+01 </wgt>
<wgt id='1765'> +8.5176501e+01 </wgt>
<wgt id='1766'> +8.5507079e+01 </wgt>
<wgt id='1767'> +8.5322887e+01 </wgt>
<wgt id='1768'> +8.7495568e+01 </wgt>
<wgt id='1769'> +8.2573904e+01 </wgt>
<wgt id='1770'> +8.7744552e+01 </wgt>
<wgt id='1771'> +8.3360516e+01 </wgt>
<wgt id='1772'> +8.5752306e+01 </wgt>
<wgt id='1773'> +8.5198936e+01 </wgt>
<wgt id='1774'> +8.5134774e+01 </wgt>
<wgt id='1775'> +8.5508776e+01 </wgt>
<wgt id='1776'> +8.4084157e+01 </wgt>
<wgt id='1777'> +8.6540580e+01 </wgt>
<wgt id='1778'> +8.4791449e+01 </wgt>
<wgt id='1779'> +8.6937948e+01 </wgt>
<wgt id='1780'> +8.3166835e+01 </wgt>
<wgt id='1781'> +9.2124253e+01 </wgt>
<wgt id='1782'> +9.2416167e+01 </wgt>
<wgt id='1783'> +9.1856657e+01 </wgt>
<wgt id='1784'> +9.2081749e+01 </wgt>
<wgt id='1785'> +9.2190026e+01 </wgt>
<wgt id='1786'> +9.2245342e+01 </wgt>
<wgt id='1787'> +9.2026582e+01 </wgt>
<wgt id='1788'> +9.1811585e+01 </wgt>
<wgt id='1789'> +9.2431317e+01 </wgt>
<wgt id='1790'> +9.2612821e+01 </wgt>
<wgt id='1791'> +9.1648903e+01 </wgt>
<wgt id='1792'> +9.2182986e+01 </wgt>
<wgt id='1793'> +9.2087077e+01 </wgt>
<wgt id='1794'> +9.1872368e+01 </wgt>
<wgt id='1795'> +9.2406244e+01 </wgt>
<wgt id='1796'> +9.2069353e+01 </wgt>
<wgt id='1797'> +9.2336036e+01 </wgt>
<wgt id='1798'> +9.2205834e+01 </wgt>
<wgt id='1799'> +9.2035270e+01 </wgt>
<wgt id='1800'> +9.1977915e+01 </wgt>
<wgt id='1801'> +9.2277308e+01 </wgt>
<wgt id='1802'> +9.1517811e+01 </wgt>
<wgt id='1803'> +9.2573221e+01 </wgt>
<wgt id='1804'> +9.2486099e+01 </wgt>
<wgt id='1805'> +9.1752010e+01 </wgt>
<wgt id='1806'> +9.2042398e+01 </wgt>
<wgt id='1807'> +9.1945717e+01 </wgt>
<wgt id='1808'> +9.2286839e+01 </wgt>
<wgt id='1809'> +9.2082240e+01 </wgt>
<wgt id='1810'> +9.2143820e+01 </wgt>
<wgt id='1811'> +9.4738782e+01 </wgt>
<wgt id='1812'> +8.8832556e+01 </wgt>
<wgt id='1813'> +9.5052238e+01 </wgt>
<wgt id='1814'> +8.9933757e+01 </wgt>
<wgt id='1815'> +9.3047559e+01 </wgt>
<wgt id='1816'> +9.1065433e+01 </wgt>
<wgt id='1817'> +9.1898069e+01 </wgt>
<wgt id='1818'> +9.2514725e+01 </wgt>
<wgt id='1819'> +9.0384444e+01 </wgt>
<wgt id='1820'> +9.3743538e+01 </wgt>
<wgt id='1821'> +9.1143705e+01 </wgt>
<wgt id='1822'> +9.3710515e+01 </wgt>
<wgt id='1823'> +9.0611371e+01 </wgt>
<wgt id='1824'> +7.2899716e+01 </wgt>
<wgt id='1825'> +7.2866968e+01 </wgt>
<wgt id='1826'> +7.2833959e+01 </wgt>
<wgt id='1827'> +7.2801317e+01 </wgt>
<wgt id='1828'> +7.2768383e+01 </wgt>
<wgt id='1829'> +7.2735739e+01 </wgt>
<wgt id='1830'> +7.2702766e+01 </wgt>
<wgt id='1831'> +7.2670122e+01 </wgt>
<wgt id='1832'> +7.2637253e+01 </wgt>
<wgt id='1833'> +7.2604044e+01 </wgt>
<wgt id='1834'> +7.2571740e+01 </wgt>
<wgt id='1835'> +7.2538413e+01 </wgt>
<wgt id='1836'> +7.2506353e+01 </wgt>
<wgt id='1837'> +7.2472844e+01 </wgt>
<wgt id='1838'> +7.2440968e+01 </wgt>
<wgt id='1839'> +7.2407521e+01 </wgt>
<wgt id='1840'> +7.2375501e+01 </wgt>
<wgt id='1841'> +7.2341981e+01 </wgt>
<wgt id='1842'> +7.2309339e+01 </wgt>
<wgt id='1843'> +7.2276674e+01 </wgt>
<wgt id='1844'> +7.2243965e+01 </wgt>
<wgt id='1845'> +7.2211099e+01 </wgt>
<wgt id='1846'> +7.2178476e+01 </wgt>
<wgt id='1847'> +7.2145828e+01 </wgt>
<wgt id='1848'> +7.2113091e+01 </wgt>
<wgt id='1849'> +7.2080256e+01 </wgt>
<wgt id='1850'> +7.2047643e+01 </wgt>
<wgt id='1851'> +7.2014191e+01 </wgt>
<wgt id='1852'> +7.1982226e+01 </wgt>
<wgt id='1853'> +7.1948797e+01 </wgt>
<wgt id='1854'> +7.1916800e+01 </wgt>
<wgt id='1855'> +8.1045403e+01 </wgt>
<wgt id='1856'> +8.0922892e+01 </wgt>
<wgt id='1857'> +8.1303619e+01 </wgt>
<wgt id='1858'> +8.0527359e+01 </wgt>
<wgt id='1859'> +8.1111472e+01 </wgt>
<wgt id='1860'> +8.1916259e+01 </wgt>
<wgt id='1861'> +8.1374690e+01 </wgt>
<wgt id='1862'> +8.1457476e+01 </wgt>
<wgt id='1863'> +8.0878570e+01 </wgt>
<wgt id='1864'> +8.0711700e+01 </wgt>
<wgt id='1865'> +8.0403285e+01 </wgt>
<wgt id='1866'> +8.3066560e+01 </wgt>
<wgt id='1867'> +8.1435727e+01 </wgt>
<wgt id='1868'> +8.1198545e+01 </wgt>
<wgt id='1869'> +8.0406879e+01 </wgt>
<wgt id='1870'> +8.3849484e+01 </wgt>
<wgt id='1871'> +8.0939870e+01 </wgt>
<wgt id='1872'> +8.0879127e+01 </wgt>
<wgt id='1873'> +8.0953527e+01 </wgt>
<wgt id='1874'> +8.0312353e+01 </wgt>
<wgt id='1875'> +8.1164084e+01 </wgt>
<wgt id='1876'> +8.1308713e+01 </wgt>
<wgt id='1877'> +7.9713859e+01 </wgt>
<wgt id='1878'> +8.1627334e+01 </wgt>
<wgt id='1879'> +7.9393719e+01 </wgt>
<wgt id='1880'> +8.0477639e+01 </wgt>
<wgt id='1881'> +8.0913143e+01 </wgt>
<wgt id='1882'> +8.0874478e+01 </wgt>
<wgt id='1883'> +8.1657718e+01 </wgt>
<wgt id='1884'> +8.0836672e+01 </wgt>
<wgt id='1885'> +8.0498076e+01 </wgt>
<wgt id='1886'> +8.1274451e+01 </wgt>
<wgt id='1887'> +8.0630213e+01 </wgt>
<wgt id='1888'> +8.1653998e+01 </wgt>
<wgt id='1889'> +8.1166822e+01 </wgt>
<wgt id='1890'> +8.1452648e+01 </wgt>
<wgt id='1891'> +8.1412564e+01 </wgt>
<wgt id='1892'> +8.1330204e+01 </wgt>
<wgt id='1893'> +8.1655743e+01 </wgt>
<wgt id='1894'> +8.0891291e+01 </wgt>
<wgt id='1895'> +8.1490345e+01 </wgt>
<wgt id='1896'> +8.1028801e+01 </wgt>
<wgt id='1897'> +8.1244018e+01 </wgt>
<wgt id='1898'> +8.0913019e+01 </wgt>
<wgt id='1899'> +8.0874747e+01 </wgt>
<wgt id='1900'> +8.0919541e+01 </wgt>
<wgt id='1901'> +8.1050121e+01 </wgt>
<wgt id='1902'> +8.0978181e+01 </wgt>
<wgt id='1903'> +8.0871986e+01 </wgt>
<wgt id='1904'> +8.1138527e+01 </wgt>
<wgt id='1905'> +8.0688399e+01 </wgt>
<wgt id='1906'> +8.0995383e+01 </wgt>
<wgt id='1907'> +8.1192286e+01 </wgt>
<wgt id='1908'> +8.1032681e+01 </wgt>
<wgt id='1909'> +8.1064161e+01 </wgt>
<wgt id='1910'> +8.0912313e+01 </wgt>
<wgt id='1911'> +8.1197438e+01 </wgt>
<wgt id='1912'> +8.1050235e+01 </wgt>
<wgt id='1913'> +8.1059538e+01 </wgt>
<wgt id='1914'> +8.1065787e+01 </wgt>
<wgt id='1915'> +8.1114331e+01 </wgt>
<wgt id='1916'> +8.0995157e+01 </wgt>
<wgt id='1917'> +8.1030448e+01 </wgt>
<wgt id='1918'> +8.1182432e+01 </wgt>
<wgt id='1919'> +8.0964389e+01 </wgt>
<wgt id='1920'> +8.1125298e+01 </wgt>
<wgt id='1921'> +8.1084391e+01 </wgt>
<wgt id='1922'> +8.1090116e+01 </wgt>
<wgt id='1923'> +8.1211012e+01 </wgt>
<wgt id='1924'> +8.0974495e+01 </wgt>
<wgt id='1925'> +8.0965133e+01 </wgt>
<wgt id='1926'> +8.1027798e+01 </wgt>
<wgt id='1927'> +8.1037951e+01 </wgt>
<wgt id='1928'> +8.0947549e+01 </wgt>
<wgt id='1929'> +8.1099322e+01 </wgt>
<wgt id='1930'> +8.1038431e+01 </wgt>
<wgt id='1931'> +8.1102448e+01 </wgt>
<wgt id='1932'> +8.1019081e+01 </wgt>
<wgt id='1933'> +8.1088809e+01 </wgt>
<wgt id='1934'> +8.1084881e+01 </wgt>
<wgt id='1935'> +8.1091963e+01 </wgt>
<wgt id='1936'> +8.1062874e+01 </wgt>
<wgt id='1937'> +8.1063811e+01 </wgt>
<wgt id='1938'> +8.1033715e+01 </wgt>
<wgt id='1939'> +8.1080986e+01 </wgt>
<wgt id='1940'> +8.0947692e+01 </wgt>
<wgt id='1941'> +8.1090058e+01 </wgt>
<wgt id='1942'> +8.0987719e+01 </wgt>
<wgt id='1943'> +8.1039126e+01 </wgt>
<wgt id='1944'> +8.1066322e+01 </wgt>
<wgt id='1945'> +8.1008393e+01 </wgt>
<wgt id='1946'> +8.1075275e+01 </wgt>
<wgt id='1947'> +8.1100219e+01 </wgt>
<wgt id='1948'> +8.1033825e+01 </wgt>
<wgt id='1949'> +8.1079290e+01 </wgt>
<wgt id='1950'> +8.1016821e+01 </wgt>
<wgt id='1951'> +8.0955896e+01 </wgt>
<wgt id='1952'> +8.1060518e+01 </wgt>
<wgt id='1953'> +8.1110388e+01 </wgt>
<wgt id='1954'> +8.1051923e+01 </wgt>
<wgt id='1955'> +8.0975867e+01 </wgt>
<wgt id='1956'> +8.1045119e+01 </wgt>
<wgt id='1957'> +8.1046936e+01 </wgt>
<wgt id='1958'> +8.1045694e+01 </wgt>
<wgt id='1959'> +8.1045748e+01 </wgt>
<wgt id='1960'> +8.1046264e+01 </wgt>
<wgt id='1961'> +8.1045527e+01 </wgt>
<wgt id='1962'> +8.1047224e+01 </wgt>
</rwgt>
</event>
<event npLO=" -1 " npNLO=" 1 ">
 7      1 +1.5146096e+02 7.21302340e+01 7.54677110e-03 1.10660560e-01
       21 -1    0    0  501  502 +0.0000000000e+00 +0.0000000000e+00 +1.2776254000e+02 1.2776254000e+02 0.0000000000e+00 0.0000e+00 9.0000e+00
        3 -1    0    0  502    0 +0.0000000000e+00 +0.0000000000e+00 -1.9301996000e+02 1.9301996000e+02 0.0000000000e+00 0.0000e+00 9.0000e+00
       23  2    1    2    0    0 +9.2041975000e+01 -6.6832765000e+01 +4.8439047000e+01 1.5987212000e+02 1.0136276000e+02 0.0000e+00 0.0000e+00
       15  1    3    3    0    0 +6.1518968000e+01 -6.8002727000e+01 +7.5676716000e+01 1.1890785000e+02 1.7770000000e+00 0.0000e+00 9.0000e+00
      -15  1    3    3    0    0 +3.0523007000e+01 +1.1699617000e+00 -2.7237669000e+01 4.0964266000e+01 1.7770000000e+00 0.0000e+00 9.0000e+00
       22  1    1    2    0    0 -3.2596600000e+01 +2.5979147000e+01 -4.3998759000e+01 6.0608128000e+01 0.0000000000e+00 0.0000e+00 9.0000e+00
        3  1    1    2  501    0 -5.9445375000e+01 +4.0853618000e+01 -6.9697706000e+01 1.0030225000e+02 0.0000000000e+00 0.0000e+00 9.0000e+00
#aMCatNLO 1  0  0  1  2 0.57892842E+01 0.00000000E+00 -9  7  0 0.00000000E+00 0.00000000E+00 0.00000000E+00 0.00000000E+00 0.00000000E+00
<rwgt>
<wgt id='1001'> +1.5146000e+02 </wgt>
<wgt id='1002'> +1.5146000e+02 </wgt>
<wgt id='1003'> +1.4998000e+02 </wgt>
<wgt id='1004'> +1.5722000e+02 </wgt>
<wgt id='1005'> +1.5617000e+02 </wgt>
<wgt id='1006'> +1.5126000e+02 </wgt>
<wgt id='1007'> +1.2742000e+02 </wgt>
<wgt id='1008'> +1.5464000e+02 </wgt>
<wgt id='1009'> +1.3418000e+02 </wgt>
<wgt id='1010'> +1.5333000e+02 </wgt>
<wgt id='1011'> +1.5594000e+02 </wgt>
<wgt id='1012'> +1.4560000e+02 </wgt>
<wgt id='1013'> +1.3969000e+02 </wgt>
<wgt id='1014'> +1.4945000e+02 </wgt>
<wgt id='1015'> +1.6135000e+02 </wgt>
<wgt id='1016'> +1.3823000e+02 </wgt>
<wgt id='1017'> +1.5720000e+02 </wgt>
<wgt id='1018'> +1.6247000e+02 </wgt>
<wgt id='1019'> +1.4876000e+02 </wgt>
<wgt id='1020'> +1.6684000e+02 </wgt>
<wgt id='1021'> +1.4812000e+02 </wgt>
<wgt id='1022'> +1.4872000e+02 </wgt>
<wgt id='1023'> +1.3999000e+02 </wgt>
<wgt id='1024'> +1.5005000e+02 </wgt>
<wgt id='1025'> +1.6154000e+02 </wgt>
<wgt id='1026'> +1.4207000e+02 </wgt>
<wgt id='1027'> +1.4779000e+02 </wgt>
<wgt id='1028'> +1.6306000e+02 </wgt>
<wgt id='1029'> +1.5318000e+02 </wgt>
<wgt id='1030'> +1.4239000e+02 </wgt>
<wgt id='1031'> +1.5121000e+02 </wgt>
<wgt id='1032'> +1.5480000e+02 </wgt>
<wgt id='1033'> +1.5958000e+02 </wgt>
<wgt id='1034'> +1.4405000e+02 </wgt>
<wgt id='1035'> +1.4805000e+02 </wgt>
<wgt id='1036'> +1.6091000e+02 </wgt>
<wgt id='1037'> +1.5672000e+02 </wgt>
<wgt id='1038'> +1.6954000e+02 </wgt>
<wgt id='1039'> +1.4968000e+02 </wgt>
<wgt id='1040'> +1.5838000e+02 </wgt>
<wgt id='1041'> +1.3472000e+02 </wgt>
<wgt id='1042'> +1.4905000e+02 </wgt>
<wgt id='1043'> +1.5630000e+02 </wgt>
<wgt id='1044'> +1.5478000e+02 </wgt>
<wgt id='1045'> +1.4547000e+02 </wgt>
<wgt id='1046'> +1.6104000e+02 </wgt>
<wgt id='1047'> +1.4831000e+02 </wgt>
<wgt id='1048'> +1.5925000e+02 </wgt>
<wgt id='1049'> +1.5250000e+02 </wgt>
<wgt id='1050'> +1.5055000e+02 </wgt>
<wgt id='1051'> +1.4573000e+02 </wgt>
<wgt id='1052'> +1.5436000e+02 </wgt>
<wgt id='1053'> +1.4645000e+02 </wgt>
<wgt id='1054'> +1.5395000e+02 </wgt>
<wgt id='1055'> +1.4520000e+02 </wgt>
<wgt id='1056'> +1.5555000e+02 </wgt>
<wgt id='1057'> +1.5440000e+02 </wgt>
<wgt id='1058'> +1.5323000e+02 </wgt>
<wgt id='1059'> +1.6329000e+02 </wgt>
<wgt id='1060'> +1.5007000e+02 </wgt>
<wgt id='1061'> +1.5888000e+02 </wgt>
<wgt id='1062'> +1.5211000e+02 </wgt>
<wgt id='1063'> +1.5488000e+02 </wgt>
<wgt id='1064'> +1.4914000e+02 </wgt>
<wgt id='1065'> +1.5052000e+02 </wgt>
<wgt id='1066'> +1.6759000e+02 </wgt>
<wgt id='1067'> +1.5836000e+02 </wgt>
<wgt id='1068'> +1.5459000e+02 </wgt>
<wgt id='1069'> +1.5617000e+02 </wgt>
<wgt id='1070'> +1.5015000e+02 </wgt>
<wgt id='1071'> +1.4306000e+02 </wgt>
<wgt id='1072'> +1.5364000e+02 </wgt>
<wgt id='1073'> +1.5624000e+02 </wgt>
<wgt id='1074'> +1.5320000e+02 </wgt>
<wgt id='1075'> +1.2808000e+02 </wgt>
<wgt id='1076'> +1.5498000e+02 </wgt>
<wgt id='1077'> +1.4871000e+02 </wgt>
<wgt id='1078'> +1.4433000e+02 </wgt>
<wgt id='1079'> +1.4948000e+02 </wgt>
<wgt id='1080'> +1.5817000e+02 </wgt>
<wgt id='1081'> +1.4869000e+02 </wgt>
<wgt id='1082'> +1.5216000e+02 </wgt>
<wgt id='1083'> +1.5322000e+02 </wgt>
<wgt id='1084'> +1.3804000e+02 </wgt>
<wgt id='1085'> +1.5894000e+02 </wgt>
<wgt id='1086'> +1.4987000e+02 </wgt>
<wgt id='1087'> +1.4504000e+02 </wgt>
<wgt id='1088'> +1.4233000e+02 </wgt>
<wgt id='1089'> +1.5428000e+02 </wgt>
<wgt id='1090'> +1.4358000e+02 </wgt>
<wgt id='1091'> +1.5086000e+02 </wgt>
<wgt id='1092'> +1.4204000e+02 </wgt>
<wgt id='1093'> +1.4481000e+02 </wgt>
<wgt id='1094'> +1.5635000e+02 </wgt>
<wgt id='1095'> +1.5767000e+02 </wgt>
<wgt id='1096'> +1.5349000e+02 </wgt>
<wgt id='1097'> +1.4426000e+02 </wgt>
<wgt id='1098'> +1.4722000e+02 </wgt>
<wgt id='1099'> +1.4551000e+02 </wgt>
<wgt id='1100'> +1.5952000e+02 </wgt>
<wgt id='1101'> +1.6550000e+02 </wgt>
<wgt id='1102'> +1.6015000e+02 </wgt>
<wgt id='1103'> +1.5019000e+02 </wgt>
<wgt id='1104'> +1.5336000e+02 </wgt>
<wgt id='1105'> +1.5146096e+02 </wgt>
<wgt id='1106'> +7.7471052e+01 </wgt>
<wgt id='1107'> +7.1399614e+01 </wgt>
<wgt id='1108'> +7.8035963e+01 </wgt>
<wgt id='1109'> +7.9752193e+01 </wgt>
<wgt id='1110'> +7.3687968e+01 </wgt>
<wgt id='1111'> +7.2306657e+01 </wgt>
<wgt id='1112'> +7.4040933e+01 </wgt>
<wgt id='1113'> +6.8064195e+01 </wgt>
<wgt id='1114'> +8.5150172e+01 </wgt>
<wgt id='1115'> +6.4252026e+01 </wgt>
<wgt id='1116'> +8.4771350e+01 </wgt>
<wgt id='1117'> +8.4694878e+01 </wgt>
<wgt id='1118'> +8.5982387e+01 </wgt>
<wgt id='1119'> +8.8669847e+01 </wgt>
<wgt id='1120'> +7.6268093e+01 </wgt>
<wgt id='1121'> +8.5934278e+01 </wgt>
<wgt id='1122'> +8.4205030e+01 </wgt>
<wgt id='1123'> +8.7390904e+01 </wgt>
<wgt id='1124'> +8.8849199e+01 </wgt>
<wgt id='1125'> +8.6063777e+01 </wgt>
<wgt id='1126'> +8.8223843e+01 </wgt>
<wgt id='1127'> +8.9513829e+01 </wgt>
<wgt id='1128'> +7.9538049e+01 </wgt>
<wgt id='1129'> +8.2529301e+01 </wgt>
<wgt id='1130'> +8.6001909e+01 </wgt>
<wgt id='1131'> +8.3222493e+01 </wgt>
<wgt id='1132'> +8.3715727e+01 </wgt>
<wgt id='1133'> +9.3538406e+01 </wgt>
<wgt id='1134'> +9.3036073e+01 </wgt>
<wgt id='1135'> +9.0558765e+01 </wgt>
<wgt id='1136'> +8.3540418e+01 </wgt>
<wgt id='1137'> +8.1660592e+01 </wgt>
<wgt id='1138'> +8.3775890e+01 </wgt>
<wgt id='1139'> +9.1464431e+01 </wgt>
<wgt id='1140'> +8.0069925e+01 </wgt>
<wgt id='1141'> +8.2963536e+01 </wgt>
<wgt id='1142'> +8.5984206e+01 </wgt>
<wgt id='1143'> +8.7843196e+01 </wgt>
<wgt id='1144'> +8.4621801e+01 </wgt>
<wgt id='1145'> +8.2276426e+01 </wgt>
<wgt id='1146'> +8.6063781e+01 </wgt>
<wgt id='1147'> +8.1162766e+01 </wgt>
<wgt id='1148'> +8.1935153e+01 </wgt>
<wgt id='1149'> +8.1882970e+01 </wgt>
<wgt id='1150'> +8.5079655e+01 </wgt>
<wgt id='1151'> +8.1942430e+01 </wgt>
<wgt id='1152'> +8.5912134e+01 </wgt>
<wgt id='1153'> +8.8568461e+01 </wgt>
<wgt id='1154'> +8.3498524e+01 </wgt>
<wgt id='1155'> +8.9787481e+01 </wgt>
<wgt id='1156'> +8.5745934e+01 </wgt>
<wgt id='1157'> +8.5693806e+01 </wgt>
<wgt id='1158'> +8.4401874e+01 </wgt>
<wgt id='1159'> +8.1171062e+01 </wgt>
<wgt id='1160'> +8.3476686e+01 </wgt>
<wgt id='1161'> +8.6336007e+01 </wgt>
<wgt id='1162'> +8.8499704e+01 </wgt>
<wgt id='1163'> +8.6194710e+01 </wgt>
<wgt id='1164'> +8.6376048e+01 </wgt>
<wgt id='1165'> +8.2791838e+01 </wgt>
<wgt id='1166'> +8.9467768e+01 </wgt>
<wgt id='1167'> +8.8557115e+01 </wgt>
<wgt id='1168'> +8.2655162e+01 </wgt>
<wgt id='1169'> +8.0889404e+01 </wgt>
<wgt id='1170'> +8.2602774e+01 </wgt>
<wgt id='1171'> +8.1836454e+01 </wgt>
<wgt id='1172'> +8.8862602e+01 </wgt>
<wgt id='1173'> +8.7611072e+01 </wgt>
<wgt id='1174'> +8.0224559e+01 </wgt>
<wgt id='1175'> +8.2621206e+01 </wgt>
<wgt id='1176'> +8.1213791e+01 </wgt>
<wgt id='1177'> +8.6045221e+01 </wgt>
<wgt id='1178'> +8.4863687e+01 </wgt>
<wgt id='1179'> +8.4888168e+01 </wgt>
<wgt id='1180'> +8.0023866e+01 </wgt>
<wgt id='1181'> +8.0343714e+01 </wgt>
<wgt id='1182'> +8.8632981e+01 </wgt>
<wgt id='1183'> +8.6958011e+01 </wgt>
<wgt id='1184'> +8.1916702e+01 </wgt>
<wgt id='1185'> +9.0005947e+01 </wgt>
<wgt id='1186'> +9.1316747e+01 </wgt>
<wgt id='1187'> +9.3933127e+01 </wgt>
<wgt id='1188'> +9.2028727e+01 </wgt>
<wgt id='1189'> +9.0882085e+01 </wgt>
<wgt id='1190'> +8.6332303e+01 </wgt>
<wgt id='1191'> +8.4265239e+01 </wgt>
<wgt id='1192'> +8.9288948e+01 </wgt>
<wgt id='1193'> +9.1711027e+01 </wgt>
<wgt id='1194'> +8.3099159e+01 </wgt>
<wgt id='1195'> +8.3202834e+01 </wgt>
<wgt id='1196'> +8.6001909e+01 </wgt>
<wgt id='1197'> +9.0849678e+01 </wgt>
<wgt id='1198'> +8.6247618e+01 </wgt>
<wgt id='1199'> +8.7439825e+01 </wgt>
<wgt id='1200'> +7.5934734e+01 </wgt>
<wgt id='1201'> +8.5868083e+01 </wgt>
<wgt id='1202'> +7.6611949e+01 </wgt>
<wgt id='1203'> +9.4825557e+01 </wgt>
<wgt id='1204'> +8.8130621e+01 </wgt>
<wgt id='1205'> +8.2260453e+01 </wgt>
<wgt id='1206'> +8.9193996e+01 </wgt>
<wgt id='1207'> +8.8402601e+01 </wgt>
<wgt id='1208'> +8.1387187e+01 </wgt>
<wgt id='1209'> +7.7585016e+01 </wgt>
<wgt id='1210'> +8.6418071e+01 </wgt>
<wgt id='1211'> +7.9168047e+01 </wgt>
<wgt id='1212'> +8.5877109e+01 </wgt>
<wgt id='1213'> +8.5336792e+01 </wgt>
<wgt id='1214'> +8.4356747e+01 </wgt>
<wgt id='1215'> +7.5727911e+01 </wgt>
<wgt id='1216'> +8.2188896e+01 </wgt>
<wgt id='1217'> +8.2500986e+01 </wgt>
<wgt id='1218'> +8.2165215e+01 </wgt>
<wgt id='1219'> +8.2379725e+01 </wgt>
<wgt id='1220'> +8.2412429e+01 </wgt>
<wgt id='1221'> +8.2285457e+01 </wgt>
<wgt id='1222'> +8.2439994e+01 </wgt>
<wgt id='1223'> +8.2381679e+01 </wgt>
<wgt id='1224'> +8.2399991e+01 </wgt>
<wgt id='1225'> +8.2333854e+01 </wgt>
<wgt id='1226'> +8.2695738e+01 </wgt>
<wgt id='1227'> +8.2339040e+01 </wgt>
<wgt id='1228'> +8.2058499e+01 </wgt>
<wgt id='1229'> +8.2066531e+01 </wgt>
<wgt id='1230'> +8.1801748e+01 </wgt>
<wgt id='1231'> +8.2962251e+01 </wgt>
<wgt id='1232'> +8.1766920e+01 </wgt>
<wgt id='1233'> +8.2560896e+01 </wgt>
<wgt id='1234'> +8.1867223e+01 </wgt>
<wgt id='1235'> +8.2251379e+01 </wgt>
<wgt id='1236'> +8.2843112e+01 </wgt>
<wgt id='1237'> +8.1101360e+01 </wgt>
<wgt id='1238'> +8.1918883e+01 </wgt>
<wgt id='1239'> +8.1892676e+01 </wgt>
<wgt id='1240'> +8.1670073e+01 </wgt>
<wgt id='1241'> +8.3029793e+01 </wgt>
<wgt id='1242'> +8.2350358e+01 </wgt>
<wgt id='1243'> +8.2263972e+01 </wgt>
<wgt id='1244'> +8.2559440e+01 </wgt>
<wgt id='1245'> +8.1623729e+01 </wgt>
<wgt id='1246'> +8.1629992e+01 </wgt>
<wgt id='1247'> +8.2294962e+01 </wgt>
<wgt id='1248'> +8.2234745e+01 </wgt>
<wgt id='1249'> +8.1900904e+01 </wgt>
<wgt id='1250'> +8.2674078e+01 </wgt>
<wgt id='1251'> +8.2003416e+01 </wgt>
<wgt id='1252'> +8.2716286e+01 </wgt>
<wgt id='1253'> +8.2928961e+01 </wgt>
<wgt id='1254'> +8.2803612e+01 </wgt>
<wgt id='1255'> +8.1799615e+01 </wgt>
<wgt id='1256'> +8.2171880e+01 </wgt>
<wgt id='1257'> +8.2325098e+01 </wgt>
<wgt id='1258'> +8.2932984e+01 </wgt>
<wgt id='1259'> +8.3024151e+01 </wgt>
<wgt id='1260'> +8.2778633e+01 </wgt>
<wgt id='1261'> +8.3263825e+01 </wgt>
<wgt id='1262'> +8.1616561e+01 </wgt>
<wgt id='1263'> +8.1429661e+01 </wgt>
<wgt id='1264'> +8.2155259e+01 </wgt>
<wgt id='1265'> +8.1987812e+01 </wgt>
<wgt id='1266'> +8.1384927e+01 </wgt>
<wgt id='1267'> +8.1979426e+01 </wgt>
<wgt id='1268'> +8.2357677e+01 </wgt>
<wgt id='1269'> +8.1964510e+01 </wgt>
<wgt id='1270'> +8.1622854e+01 </wgt>
<wgt id='1271'> +8.2119755e+01 </wgt>
<wgt id='1272'> +8.2040668e+01 </wgt>
<wgt id='1273'> +8.2091487e+01 </wgt>
<wgt id='1274'> +8.1949156e+01 </wgt>
<wgt id='1275'> +8.2412110e+01 </wgt>
<wgt id='1276'> +8.2390084e+01 </wgt>
<wgt id='1277'> +8.2231924e+01 </wgt>
<wgt id='1278'> +8.2333752e+01 </wgt>
<wgt id='1279'> +8.2445857e+01 </wgt>
<wgt id='1280'> +8.2332202e+01 </wgt>
<wgt id='1281'> +8.2736605e+01 </wgt>
<wgt id='1282'> +8.2468238e+01 </wgt>
<wgt id='1283'> +8.1917360e+01 </wgt>
<wgt id='1284'> +8.2068762e+01 </wgt>
<wgt id='1285'> +8.2360842e+01 </wgt>
<wgt id='1286'> +8.2197890e+01 </wgt>
<wgt id='1287'> +8.1964541e+01 </wgt>
<wgt id='1288'> +8.2659879e+01 </wgt>
<wgt id='1289'> +8.2235096e+01 </wgt>
<wgt id='1290'> +8.2386670e+01 </wgt>
<wgt id='1291'> +8.1938867e+01 </wgt>
<wgt id='1292'> +8.1943069e+01 </wgt>
<wgt id='1293'> +8.2330670e+01 </wgt>
<wgt id='1294'> +8.2052961e+01 </wgt>
<wgt id='1295'> +8.2273784e+01 </wgt>
<wgt id='1296'> +8.2151299e+01 </wgt>
<wgt id='1297'> +8.1952143e+01 </wgt>
<wgt id='1298'> +8.2158688e+01 </wgt>
<wgt id='1299'> +8.2134719e+01 </wgt>
<wgt id='1300'> +8.2233972e+01 </wgt>
<wgt id='1301'> +8.2123666e+01 </wgt>
<wgt id='1302'> +8.2158539e+01 </wgt>
<wgt id='1303'> +8.2003308e+01 </wgt>
<wgt id='1304'> +8.2218946e+01 </wgt>
<wgt id='1305'> +8.2354257e+01 </wgt>
<wgt id='1306'> +8.2246416e+01 </wgt>
<wgt id='1307'> +8.2133763e+01 </wgt>
<wgt id='1308'> +8.2170751e+01 </wgt>
<wgt id='1309'> +8.2350671e+01 </wgt>
<wgt id='1310'> +8.2268312e+01 </wgt>
<wgt id='1311'> +8.2144724e+01 </wgt>
<wgt id='1312'> +8.2182334e+01 </wgt>
<wgt id='1313'> +8.2118166e+01 </wgt>
<wgt id='1314'> +8.2234703e+01 </wgt>
<wgt id='1315'> +8.2216732e+01 </wgt>
<wgt id='1316'> +8.2361218e+01 </wgt>
<wgt id='1317'> +8.1561764e+01 </wgt>
<wgt id='1318'> +8.2814440e+01 </wgt>
<wgt id='1319'> +3.9032594e+01 </wgt>
<wgt id='1320'> +7.9419921e+01 </wgt>
<wgt id='1321'> +7.9638235e+01 </wgt>
<wgt id='1322'> +7.9665049e+01 </wgt>
<wgt id='1323'> +8.1971982e+01 </wgt>
<wgt id='1324'> +7.6930024e+01 </wgt>
<wgt id='1325'> +8.0544291e+01 </wgt>
<wgt id='1326'> +7.8862704e+01 </wgt>
<wgt id='1327'> +8.0380541e+01 </wgt>
<wgt id='1328'> +7.8503778e+01 </wgt>
<wgt id='1329'> +7.8681647e+01 </wgt>
<wgt id='1330'> +7.9245889e+01 </wgt>
<wgt id='1331'> +7.8629431e+01 </wgt>
<wgt id='1332'> +8.0153952e+01 </wgt>
<wgt id='1333'> +7.9674407e+01 </wgt>
<wgt id='1334'> +7.8658975e+01 </wgt>
<wgt id='1335'> +7.0727868e+01 </wgt>
<wgt id='1336'> +8.8793736e+01 </wgt>
<wgt id='1337'> +7.7710028e+01 </wgt>
<wgt id='1338'> +8.1378011e+01 </wgt>
<wgt id='1339'> +7.9248045e+01 </wgt>
<wgt id='1340'> +7.9584474e+01 </wgt>
<wgt id='1341'> +7.8262368e+01 </wgt>
<wgt id='1342'> +8.1628312e+01 </wgt>
<wgt id='1343'> +7.9014197e+01 </wgt>
<wgt id='1344'> +7.9745426e+01 </wgt>
<wgt id='1345'> +8.0495049e+01 </wgt>
<wgt id='1346'> +7.8422816e+01 </wgt>
<wgt id='1347'> +7.9343268e+01 </wgt>
<wgt id='1348'> +7.9467725e+01 </wgt>
<wgt id='1349'> +7.9583218e+01 </wgt>
<wgt id='1350'> +7.9362065e+01 </wgt>
<wgt id='1351'> +7.9532149e+01 </wgt>
<wgt id='1352'> +7.9249334e+01 </wgt>
<wgt id='1353'> +7.9033176e+01 </wgt>
<wgt id='1354'> +8.0202365e+01 </wgt>
<wgt id='1355'> +7.9439510e+01 </wgt>
<wgt id='1356'> +7.9439859e+01 </wgt>
<wgt id='1357'> +8.0111757e+01 </wgt>
<wgt id='1358'> +7.7971944e+01 </wgt>
<wgt id='1359'> +8.1712007e+01 </wgt>
<wgt id='1360'> +7.6518430e+01 </wgt>
<wgt id='1361'> +7.9311883e+01 </wgt>
<wgt id='1362'> +7.9729879e+01 </wgt>
<wgt id='1363'> +7.9100824e+01 </wgt>
<wgt id='1364'> +8.0039956e+01 </wgt>
<wgt id='1365'> +7.5637650e+01 </wgt>
<wgt id='1366'> +8.1443937e+01 </wgt>
<wgt id='1367'> +7.8609802e+01 </wgt>
<wgt id='1368'> +7.8325214e+01 </wgt>
<wgt id='1369'> +7.9592697e+01 </wgt>
<wgt id='1370'> +7.5886772e+01 </wgt>
<wgt id='1371'> +7.8962245e+01 </wgt>
<wgt id='1372'> +7.8727205e+01 </wgt>
<wgt id='1373'> +7.7366027e+01 </wgt>
<wgt id='1374'> +8.0659629e+01 </wgt>
<wgt id='1375'> +7.9842240e+01 </wgt>
<wgt id='1376'> +7.2859733e+01 </wgt>
<wgt id='1377'> +7.7874500e+01 </wgt>
<wgt id='1378'> +8.0769257e+01 </wgt>
<wgt id='1379'> +8.2249359e+01 </wgt>
<wgt id='1380'> +8.0695292e+01 </wgt>
<wgt id='1381'> +8.3351291e+01 </wgt>
<wgt id='1382'> +6.2156813e+01 </wgt>
<wgt id='1383'> +8.4975601e+01 </wgt>
<wgt id='1384'> +8.2139396e+01 </wgt>
<wgt id='1385'> +8.1425681e+01 </wgt>
<wgt id='1386'> +8.1618046e+01 </wgt>
<wgt id='1387'> +8.1208176e+01 </wgt>
<wgt id='1388'> +8.1218264e+01 </wgt>
<wgt id='1389'> +8.1775607e+01 </wgt>
<wgt id='1390'> +8.1279460e+01 </wgt>
<wgt id='1391'> +8.1602098e+01 </wgt>
<wgt id='1392'> +8.1002124e+01 </wgt>
<wgt id='1393'> +8.1717578e+01 </wgt>
<wgt id='1394'> +8.1365930e+01 </wgt>
<wgt id='1395'> +8.1502816e+01 </wgt>
<wgt id='1396'> +8.0779502e+01 </wgt>
<wgt id='1397'> +8.1762129e+01 </wgt>
<wgt id='1398'> +8.1657840e+01 </wgt>
<wgt id='1399'> +8.1249945e+01 </wgt>
<wgt id='1400'> +8.1246916e+01 </wgt>
<wgt id='1401'> +8.1559556e+01 </wgt>
<wgt id='1402'> +8.0954266e+01 </wgt>
<wgt id='1403'> +8.1640328e+01 </wgt>
<wgt id='1404'> +8.2854204e+01 </wgt>
<wgt id='1405'> +8.0728424e+01 </wgt>
<wgt id='1406'> +8.2622127e+01 </wgt>
<wgt id='1407'> +7.9264973e+01 </wgt>
<wgt id='1408'> +8.2737906e+01 </wgt>
<wgt id='1409'> +7.8799032e+01 </wgt>
<wgt id='1410'> +8.1644985e+01 </wgt>
<wgt id='1411'> +8.0827250e+01 </wgt>
<wgt id='1412'> +8.0920466e+01 </wgt>
<wgt id='1413'> +8.2136788e+01 </wgt>
<wgt id='1414'> +8.1409314e+01 </wgt>
<wgt id='1415'> +8.1459807e+01 </wgt>
<wgt id='1416'> +8.1621192e+01 </wgt>
<wgt id='1417'> +8.1306873e+01 </wgt>
<wgt id='1418'> +8.1826456e+01 </wgt>
<wgt id='1419'> +8.0571477e+01 </wgt>
<wgt id='1420'> +8.1240891e+01 </wgt>
<wgt id='1421'> +8.1217377e+01 </wgt>
<wgt id='1422'> +8.1073973e+01 </wgt>
<wgt id='1423'> +8.1773674e+01 </wgt>
<wgt id='1424'> +8.1768292e+01 </wgt>
<wgt id='1425'> +8.0747596e+01 </wgt>
<wgt id='1426'> +7.9026540e+01 </wgt>
<wgt id='1427'> +8.2218828e+01 </wgt>
<wgt id='1428'> +8.0237924e+01 </wgt>
<wgt id='1429'> +8.2642714e+01 </wgt>
<wgt id='1430'> +8.0725558e+01 </wgt>
<wgt id='1431'> +8.0245465e+01 </wgt>
<wgt id='1432'> +8.0707404e+01 </wgt>
<wgt id='1433'> +7.9838031e+01 </wgt>
<wgt id='1434'> +8.1084902e+01 </wgt>
<wgt id='1435'> +8.1522455e+01 </wgt>
<wgt id='1436'> +9.0251447e+01 </wgt>
<wgt id='1437'> +9.0241332e+01 </wgt>
<wgt id='1438'> +9.0283589e+01 </wgt>
<wgt id='1439'> +9.0254024e+01 </wgt>
<wgt id='1440'> +9.0143504e+01 </wgt>
<wgt id='1441'> +8.9459492e+01 </wgt>
<wgt id='1442'> +8.9601509e+01 </wgt>
<wgt id='1443'> +9.0127196e+01 </wgt>
<wgt id='1444'> +8.9981596e+01 </wgt>
<wgt id='1445'> +9.0031658e+01 </wgt>
<wgt id='1446'> +9.0171710e+01 </wgt>
<wgt id='1447'> +9.0256582e+01 </wgt>
<wgt id='1448'> +8.9959372e+01 </wgt>
<wgt id='1449'> +9.0050567e+01 </wgt>
<wgt id='1450'> +9.0388623e+01 </wgt>
<wgt id='1451'> +9.0126050e+01 </wgt>
<wgt id='1452'> +9.0100360e+01 </wgt>
<wgt id='1453'> +9.0447071e+01 </wgt>
<wgt id='1454'> +9.0418591e+01 </wgt>
<wgt id='1455'> +9.0183370e+01 </wgt>
<wgt id='1456'> +9.0172625e+01 </wgt>
<wgt id='1457'> +9.0073735e+01 </wgt>
<wgt id='1458'> +9.0503704e+01 </wgt>
<wgt id='1459'> +9.0366253e+01 </wgt>
<wgt id='1460'> +9.0423305e+01 </wgt>
<wgt id='1461'> +9.0485987e+01 </wgt>
<wgt id='1462'> +9.0197936e+01 </wgt>
<wgt id='1463'> +9.0187939e+01 </wgt>
<wgt id='1464'> +9.0867946e+01 </wgt>
<wgt id='1465'> +8.5691079e+01 </wgt>
<wgt id='1466'> +7.9956447e+01 </wgt>
<wgt id='1467'> +8.0343800e+01 </wgt>
<wgt id='1468'> +8.0871636e+01 </wgt>
<wgt id='1469'> +7.8649534e+01 </wgt>
<wgt id='1470'> +8.0424506e+01 </wgt>
<wgt id='1471'> +7.8848986e+01 </wgt>
<wgt id='1472'> +8.0758408e+01 </wgt>
<wgt id='1473'> +7.9566056e+01 </wgt>
<wgt id='1474'> +8.1764939e+01 </wgt>
<wgt id='1475'> +7.9097874e+01 </wgt>
<wgt id='1476'> +7.9537253e+01 </wgt>
<wgt id='1477'> +8.1642488e+01 </wgt>
<wgt id='1478'> +7.9516105e+01 </wgt>
<wgt id='1479'> +7.8730538e+01 </wgt>
<wgt id='1480'> +8.2007831e+01 </wgt>
<wgt id='1481'> +7.8753269e+01 </wgt>
<wgt id='1482'> +8.3598750e+01 </wgt>
<wgt id='1483'> +7.8531530e+01 </wgt>
<wgt id='1484'> +7.7999048e+01 </wgt>
<wgt id='1485'> +8.1932863e+01 </wgt>
<wgt id='1486'> +8.2019357e+01 </wgt>
<wgt id='1487'> +7.9194405e+01 </wgt>
<wgt id='1488'> +7.9239146e+01 </wgt>
<wgt id='1489'> +7.8160626e+01 </wgt>
<wgt id='1490'> +7.9904249e+01 </wgt>
<wgt id='1491'> +8.0210555e+01 </wgt>
<wgt id='1492'> +8.0214847e+01 </wgt>
<wgt id='1493'> +7.9122407e+01 </wgt>
<wgt id='1494'> +7.9366862e+01 </wgt>
<wgt id='1495'> +8.0336883e+01 </wgt>
<wgt id='1496'> +8.0242359e+01 </wgt>
<wgt id='1497'> +7.9844017e+01 </wgt>
<wgt id='1498'> +7.9855680e+01 </wgt>
<wgt id='1499'> +7.9799010e+01 </wgt>
<wgt id='1500'> +8.0148819e+01 </wgt>
<wgt id='1501'> +8.0546388e+01 </wgt>
<wgt id='1502'> +7.9910585e+01 </wgt>
<wgt id='1503'> +7.9920114e+01 </wgt>
<wgt id='1504'> +7.9671370e+01 </wgt>
<wgt id='1505'> +7.9802869e+01 </wgt>
<wgt id='1506'> +7.9877445e+01 </wgt>
<wgt id='1507'> +8.0417964e+01 </wgt>
<wgt id='1508'> +8.0009404e+01 </wgt>
<wgt id='1509'> +7.9864235e+01 </wgt>
<wgt id='1510'> +8.0256236e+01 </wgt>
<wgt id='1511'> +8.0029787e+01 </wgt>
<wgt id='1512'> +8.0152740e+01 </wgt>
<wgt id='1513'> +7.9643550e+01 </wgt>
<wgt id='1514'> +7.9491714e+01 </wgt>
<wgt id='1515'> +7.9904826e+01 </wgt>
<wgt id='1516'> +7.9958337e+01 </wgt>
<wgt id='1517'> +7.9562970e+01 </wgt>
<wgt id='1518'> +7.9697542e+01 </wgt>
<wgt id='1519'> +8.0200430e+01 </wgt>
<wgt id='1520'> +7.9721067e+01 </wgt>
<wgt id='1521'> +7.9552915e+01 </wgt>
<wgt id='1522'> +7.9687600e+01 </wgt>
<wgt id='1523'> +7.9786682e+01 </wgt>
<wgt id='1524'> +8.0063065e+01 </wgt>
<wgt id='1525'> +8.0007078e+01 </wgt>
<wgt id='1526'> +8.0033101e+01 </wgt>
<wgt id='1527'> +7.9877253e+01 </wgt>
<wgt id='1528'> +8.0023576e+01 </wgt>
<wgt id='1529'> +7.9845088e+01 </wgt>
<wgt id='1530'> +8.0059933e+01 </wgt>
<wgt id='1531'> +8.0121316e+01 </wgt>
<wgt id='1532'> +7.9774754e+01 </wgt>
<wgt id='1533'> +8.0021660e+01 </wgt>
<wgt id='1534'> +8.0127074e+01 </wgt>
<wgt id='1535'> +8.0125814e+01 </wgt>
<wgt id='1536'> +7.9878989e+01 </wgt>
<wgt id='1537'> +7.9759244e+01 </wgt>
<wgt id='1538'> +8.0052010e+01 </wgt>
<wgt id='1539'> +7.9871055e+01 </wgt>
<wgt id='1540'> +8.0049558e+01 </wgt>
<wgt id='1541'> +7.9977777e+01 </wgt>
<wgt id='1542'> +7.9950418e+01 </wgt>
<wgt id='1543'> +7.9895368e+01 </wgt>
<wgt id='1544'> +7.9888745e+01 </wgt>
<wgt id='1545'> +8.0034202e+01 </wgt>
<wgt id='1546'> +7.9929101e+01 </wgt>
<wgt id='1547'> +7.9931725e+01 </wgt>
<wgt id='1548'> +7.9867496e+01 </wgt>
<wgt id='1549'> +7.9970282e+01 </wgt>
<wgt id='1550'> +8.0040220e+01 </wgt>
<wgt id='1551'> +7.9951288e+01 </wgt>
<wgt id='1552'> +8.0000323e+01 </wgt>
<wgt id='1553'> +7.9934642e+01 </wgt>
<wgt id='1554'> +7.9949875e+01 </wgt>
<wgt id='1555'> +7.9919812e+01 </wgt>
<wgt id='1556'> +8.0013219e+01 </wgt>
<wgt id='1557'> +7.9984692e+01 </wgt>
<wgt id='1558'> +7.9988291e+01 </wgt>
<wgt id='1559'> +7.9913897e+01 </wgt>
<wgt id='1560'> +7.9954613e+01 </wgt>
<wgt id='1561'> +8.0016568e+01 </wgt>
<wgt id='1562'> +7.9942274e+01 </wgt>
<wgt id='1563'> +7.9975292e+01 </wgt>
<wgt id='1564'> +7.9995707e+01 </wgt>
<wgt id='1565'> +8.0021903e+01 </wgt>
<wgt id='1566'> +7.9977942e+01 </wgt>
<wgt id='1567'> +7.8858075e+01 </wgt>
<wgt id='1568'> +8.1309088e+01 </wgt>
<wgt id='1569'> +8.0093426e+01 </wgt>
<wgt id='1570'> +8.1215350e+01 </wgt>
<wgt id='1571'> +7.9858329e+01 </wgt>
<wgt id='1572'> +8.0327269e+01 </wgt>
<wgt id='1573'> +7.9277593e+01 </wgt>
<wgt id='1574'> +7.9244953e+01 </wgt>
<wgt id='1575'> +7.8859903e+01 </wgt>
<wgt id='1576'> +7.8086049e+01 </wgt>
<wgt id='1577'> +7.9848679e+01 </wgt>
<wgt id='1578'> +8.0640602e+01 </wgt>
<wgt id='1579'> +8.1309259e+01 </wgt>
<wgt id='1580'> +7.8060098e+01 </wgt>
<wgt id='1581'> +7.9819835e+01 </wgt>
<wgt id='1582'> +7.9859501e+01 </wgt>
<wgt id='1583'> +7.8809074e+01 </wgt>
<wgt id='1584'> +7.9923755e+01 </wgt>
<wgt id='1585'> +7.9375861e+01 </wgt>
<wgt id='1586'> +8.2551798e+01 </wgt>
<wgt id='1587'> +7.7533305e+01 </wgt>
<wgt id='1588'> +8.1173128e+01 </wgt>
<wgt id='1589'> +8.0118838e+01 </wgt>
<wgt id='1590'> +8.0400295e+01 </wgt>
<wgt id='1591'> +8.2470627e+01 </wgt>
<wgt id='1592'> +8.2087140e+01 </wgt>
<wgt id='1593'> +7.9081703e+01 </wgt>
<wgt id='1594'> +7.9905085e+01 </wgt>
<wgt id='1595'> +8.1637848e+01 </wgt>
<wgt id='1596'> +7.9131464e+01 </wgt>
<wgt id='1597'> +8.0451054e+01 </wgt>
<wgt id='1598'> +8.1035537e+01 </wgt>
<wgt id='1599'> +8.0066535e+01 </wgt>
<wgt id='1600'> +8.0401280e+01 </wgt>
<wgt id='1601'> +7.9617452e+01 </wgt>
<wgt id='1602'> +8.0379855e+01 </wgt>
<wgt id='1603'> +7.9511257e+01 </wgt>
<wgt id='1604'> +8.0134298e+01 </wgt>
<wgt id='1605'> +8.0210285e+01 </wgt>
<wgt id='1606'> +8.0476667e+01 </wgt>
<wgt id='1607'> +8.0153877e+01 </wgt>
<wgt id='1608'> +8.0016154e+01 </wgt>
<wgt id='1609'> +7.9858234e+01 </wgt>
<wgt id='1610'> +7.9926380e+01 </wgt>
<wgt id='1611'> +8.0171707e+01 </wgt>
<wgt id='1612'> +7.9643375e+01 </wgt>
<wgt id='1613'> +8.0147007e+01 </wgt>
<wgt id='1614'> +7.9931574e+01 </wgt>
<wgt id='1615'> +7.9569285e+01 </wgt>
<wgt id='1616'> +8.0138657e+01 </wgt>
<wgt id='1617'> +8.0360729e+01 </wgt>
<wgt id='1618'> +7.9795042e+01 </wgt>
<wgt id='1619'> +8.0534648e+01 </wgt>
<wgt id='1620'> +8.0460047e+01 </wgt>
<wgt id='1621'> +7.9882663e+01 </wgt>
<wgt id='1622'> +8.0122981e+01 </wgt>
<wgt id='1623'> +8.0036923e+01 </wgt>
<wgt id='1624'> +7.9836738e+01 </wgt>
<wgt id='1625'> +8.0553709e+01 </wgt>
<wgt id='1626'> +8.0126926e+01 </wgt>
<wgt id='1627'> +8.0201553e+01 </wgt>
<wgt id='1628'> +8.0183864e+01 </wgt>
<wgt id='1629'> +8.0248350e+01 </wgt>
<wgt id='1630'> +8.0133785e+01 </wgt>
<wgt id='1631'> +8.0062159e+01 </wgt>
<wgt id='1632'> +8.0321402e+01 </wgt>
<wgt id='1633'> +7.9950276e+01 </wgt>
<wgt id='1634'> +8.0013420e+01 </wgt>
<wgt id='1635'> +7.9951054e+01 </wgt>
<wgt id='1636'> +8.0268152e+01 </wgt>
<wgt id='1637'> +8.0044988e+01 </wgt>
<wgt id='1638'> +8.0226237e+01 </wgt>
<wgt id='1639'> +8.0027681e+01 </wgt>
<wgt id='1640'> +8.0057541e+01 </wgt>
<wgt id='1641'> +8.0088278e+01 </wgt>
<wgt id='1642'> +8.0182409e+01 </wgt>
<wgt id='1643'> +8.0078134e+01 </wgt>
<wgt id='1644'> +8.0007185e+01 </wgt>
<wgt id='1645'> +7.9985331e+01 </wgt>
<wgt id='1646'> +8.0094025e+01 </wgt>
<wgt id='1647'> +8.0240483e+01 </wgt>
<wgt id='1648'> +7.9990210e+01 </wgt>
<wgt id='1649'> +8.0112066e+01 </wgt>
<wgt id='1650'> +8.0055187e+01 </wgt>
<wgt id='1651'> +8.0157017e+01 </wgt>
<wgt id='1652'> +8.0028657e+01 </wgt>
<wgt id='1653'> +8.0123162e+01 </wgt>
<wgt id='1654'> +7.9983168e+01 </wgt>
<wgt id='1655'> +8.0106217e+01 </wgt>
<wgt id='1656'> +7.9995123e+01 </wgt>
<wgt id='1657'> +8.0036187e+01 </wgt>
<wgt id='1658'> +8.0055696e+01 </wgt>
<wgt id='1659'> +8.0042264e+01 </wgt>
<wgt id='1660'> +8.0138247e+01 </wgt>
<wgt id='1661'> +8.0067684e+01 </wgt>
<wgt id='1662'> +8.0119647e+01 </wgt>
<wgt id='1663'> +8.0052221e+01 </wgt>
<wgt id='1664'> +8.0102353e+01 </wgt>
<wgt id='1665'> +8.0091184e+01 </wgt>
<wgt id='1666'> +8.0076730e+01 </wgt>
<wgt id='1667'> +8.0084549e+01 </wgt>
<wgt id='1668'> +8.0030493e+01 </wgt>
<wgt id='1669'> +8.0085661e+01 </wgt>
<wgt id='1670'> +7.9180101e+01 </wgt>
<wgt id='1671'> +8.0674995e+01 </wgt>
<wgt id='1672'> +7.9962095e+01 </wgt>
<wgt id='1673'> +7.9841134e+01 </wgt>
<wgt id='1674'> +8.7048523e+01 </wgt>
<wgt id='1675'> +8.0035871e+01 </wgt>
<wgt id='1676'> +8.0342349e+01 </wgt>
<wgt id='1677'> +8.1309246e+01 </wgt>
<wgt id='1678'> +8.0043361e+01 </wgt>
<wgt id='1679'> +7.9904930e+01 </wgt>
<wgt id='1680'> +7.9917713e+01 </wgt>
<wgt id='1681'> +7.9731599e+01 </wgt>
<wgt id='1682'> +7.9730081e+01 </wgt>
<wgt id='1683'> +8.0353392e+01 </wgt>
<wgt id='1684'> +7.9821480e+01 </wgt>
<wgt id='1685'> +8.0018253e+01 </wgt>
<wgt id='1686'> +8.0228995e+01 </wgt>
<wgt id='1687'> +8.0112132e+01 </wgt>
<wgt id='1688'> +8.0084959e+01 </wgt>
<wgt id='1689'> +7.9969221e+01 </wgt>
<wgt id='1690'> +7.9735157e+01 </wgt>
<wgt id='1691'> +7.9680906e+01 </wgt>
<wgt id='1692'> +7.9576701e+01 </wgt>
<wgt id='1693'> +8.0116766e+01 </wgt>
<wgt id='1694'> +8.0003009e+01 </wgt>
<wgt id='1695'> +7.9859629e+01 </wgt>
<wgt id='1696'> +8.0051881e+01 </wgt>
<wgt id='1697'> +8.0014525e+01 </wgt>
<wgt id='1698'> +7.9628179e+01 </wgt>
<wgt id='1699'> +8.0050214e+01 </wgt>
<wgt id='1700'> +8.0080149e+01 </wgt>
<wgt id='1701'> +7.9867180e+01 </wgt>
<wgt id='1702'> +7.9964370e+01 </wgt>
<wgt id='1703'> +7.8858075e+01 </wgt>
<wgt id='1704'> +8.1309088e+01 </wgt>
<wgt id='1705'> +8.0098099e+01 </wgt>
<wgt id='1706'> +8.2508481e+01 </wgt>
<wgt id='1707'> +7.9015559e+01 </wgt>
<wgt id='1708'> +8.0438521e+01 </wgt>
<wgt id='1709'> +8.0299626e+01 </wgt>
<wgt id='1710'> +7.9720792e+01 </wgt>
<wgt id='1711'> +8.0423525e+01 </wgt>
<wgt id='1712'> +8.0306967e+01 </wgt>
<wgt id='1713'> +8.0625374e+01 </wgt>
<wgt id='1714'> +8.2789119e+01 </wgt>
<wgt id='1715'> +7.8613173e+01 </wgt>
<wgt id='1716'> +7.7099098e+01 </wgt>
<wgt id='1717'> +7.9743797e+01 </wgt>
<wgt id='1718'> +8.0326395e+01 </wgt>
<wgt id='1719'> +8.0419763e+01 </wgt>
<wgt id='1720'> +8.0368226e+01 </wgt>
<wgt id='1721'> +8.0152374e+01 </wgt>
<wgt id='1722'> +8.0961548e+01 </wgt>
<wgt id='1723'> +8.0296613e+01 </wgt>
<wgt id='1724'> +8.0238904e+01 </wgt>
<wgt id='1725'> +8.0798936e+01 </wgt>
<wgt id='1726'> +8.1102046e+01 </wgt>
<wgt id='1727'> +7.9348615e+01 </wgt>
<wgt id='1728'> +8.0053874e+01 </wgt>
<wgt id='1729'> +7.8975416e+01 </wgt>
<wgt id='1730'> +8.0747454e+01 </wgt>
<wgt id='1731'> +8.0989030e+01 </wgt>
<wgt id='1732'> +7.8641584e+01 </wgt>
<wgt id='1733'> +7.9337936e+01 </wgt>
<wgt id='1734'> +8.1213424e+01 </wgt>
<wgt id='1735'> +7.9800396e+01 </wgt>
<wgt id='1736'> +7.9180101e+01 </wgt>
<wgt id='1737'> +8.0674995e+01 </wgt>
<wgt id='1738'> +8.7718744e+01 </wgt>
<wgt id='1739'> +8.7741650e+01 </wgt>
<wgt id='1740'> +8.7695885e+01 </wgt>
<wgt id='1741'> +8.7675498e+01 </wgt>
<wgt id='1742'> +8.7761731e+01 </wgt>
<wgt id='1743'> +8.7918349e+01 </wgt>
<wgt id='1744'> +8.7519704e+01 </wgt>
<wgt id='1745'> +8.7788167e+01 </wgt>
<wgt id='1746'> +8.7649072e+01 </wgt>
<wgt id='1747'> +8.7949612e+01 </wgt>
<wgt id='1748'> +8.7489093e+01 </wgt>
<wgt id='1749'> +8.7590032e+01 </wgt>
<wgt id='1750'> +8.7893165e+01 </wgt>
<wgt id='1751'> +8.7539907e+01 </wgt>
<wgt id='1752'> +8.7900441e+01 </wgt>
<wgt id='1753'> +8.7586071e+01 </wgt>
<wgt id='1754'> +8.7682014e+01 </wgt>
<wgt id='1755'> +8.7796536e+01 </wgt>
<wgt id='1756'> +8.7735672e+01 </wgt>
<wgt id='1757'> +8.7550548e+01 </wgt>
<wgt id='1758'> +8.7828240e+01 </wgt>
<wgt id='1759'> +8.7367880e+01 </wgt>
<wgt id='1760'> +8.8026255e+01 </wgt>
<wgt id='1761'> +8.8102944e+01 </wgt>
<wgt id='1762'> +8.7069687e+01 </wgt>
<wgt id='1763'> +8.7894341e+01 </wgt>
<wgt id='1764'> +8.7625962e+01 </wgt>
<wgt id='1765'> +8.8240842e+01 </wgt>
<wgt id='1766'> +8.7263290e+01 </wgt>
<wgt id='1767'> +8.7718744e+01 </wgt>
<wgt id='1768'> +7.8939546e+01 </wgt>
<wgt id='1769'> +9.7763715e+01 </wgt>
<wgt id='1770'> +7.1772727e+01 </wgt>
<wgt id='1771'> +8.4410241e+01 </wgt>
<wgt id='1772'> +8.7886173e+01 </wgt>
<wgt id='1773'> +8.7745473e+01 </wgt>
<wgt id='1774'> +8.7610563e+01 </wgt>
<wgt id='1775'> +8.7803321e+01 </wgt>
<wgt id='1776'> +8.7450800e+01 </wgt>
<wgt id='1777'> +8.7927397e+01 </wgt>
<wgt id='1778'> +8.7739199e+01 </wgt>
<wgt id='1779'> +8.7764114e+01 </wgt>
<wgt id='1780'> +8.5006193e+01 </wgt>
<wgt id='1781'> +8.5287299e+01 </wgt>
<wgt id='1782'> +8.5312293e+01 </wgt>
<wgt id='1783'> +8.5240990e+01 </wgt>
<wgt id='1784'> +8.5148627e+01 </wgt>
<wgt id='1785'> +8.5404800e+01 </wgt>
<wgt id='1786'> +8.5408997e+01 </wgt>
<wgt id='1787'> +8.5144363e+01 </wgt>
<wgt id='1788'> +8.5305791e+01 </wgt>
<wgt id='1789'> +8.5247436e+01 </wgt>
<wgt id='1790'> +8.5304697e+01 </wgt>
<wgt id='1791'> +8.5254305e+01 </wgt>
<wgt id='1792'> +8.5499920e+01 </wgt>
<wgt id='1793'> +8.5055366e+01 </wgt>
<wgt id='1794'> +8.5108260e+01 </wgt>
<wgt id='1795'> +8.5438522e+01 </wgt>
<wgt id='1796'> +8.5101671e+01 </wgt>
<wgt id='1797'> +8.5254593e+01 </wgt>
<wgt id='1798'> +8.5407468e+01 </wgt>
<wgt id='1799'> +8.5140082e+01 </wgt>
<wgt id='1800'> +8.5005753e+01 </wgt>
<wgt id='1801'> +8.5552829e+01 </wgt>
<wgt id='1802'> +8.5351305e+01 </wgt>
<wgt id='1803'> +8.5135304e+01 </wgt>
<wgt id='1804'> +8.6157126e+01 </wgt>
<wgt id='1805'> +8.4436344e+01 </wgt>
<wgt id='1806'> +8.6430003e+01 </wgt>
<wgt id='1807'> +8.4119019e+01 </wgt>
<wgt id='1808'> +8.6324479e+01 </wgt>
<wgt id='1809'> +8.4373356e+01 </wgt>
<wgt id='1810'> +8.5295313e+01 </wgt>
<wgt id='1811'> +7.6814790e+01 </wgt>
<wgt id='1812'> +9.5031719e+01 </wgt>
<wgt id='1813'> +7.0096601e+01 </wgt>
<wgt id='1814'> +8.2625328e+01 </wgt>
<wgt id='1815'> +8.7443983e+01 </wgt>
<wgt id='1816'> +8.4707350e+01 </wgt>
<wgt id='1817'> +8.5119520e+01 </wgt>
<wgt id='1818'> +8.5153402e+01 </wgt>
<wgt id='1819'> +8.6140294e+01 </wgt>
<wgt id='1820'> +8.7534209e+01 </wgt>
<wgt id='1821'> +8.6540038e+01 </wgt>
<wgt id='1822'> +8.4042952e+01 </wgt>
<wgt id='1823'> +8.4469144e+01 </wgt>
<wgt id='1824'> +7.8938052e+01 </wgt>
<wgt id='1825'> +7.8915619e+01 </wgt>
<wgt id='1826'> +7.8893527e+01 </wgt>
<wgt id='1827'> +7.8871173e+01 </wgt>
<wgt id='1828'> +7.8848772e+01 </wgt>
<wgt id='1829'> +7.8826698e+01 </wgt>
<wgt id='1830'> +7.8804276e+01 </wgt>
<wgt id='1831'> +7.8781877e+01 </wgt>
<wgt id='1832'> +7.8759763e+01 </wgt>
<wgt id='1833'> +7.8737388e+01 </wgt>
<wgt id='1834'> +7.8714984e+01 </wgt>
<wgt id='1835'> +7.8692992e+01 </wgt>
<wgt id='1836'> +7.8670614e+01 </wgt>
<wgt id='1837'> +7.8648278e+01 </wgt>
<wgt id='1838'> +7.8626193e+01 </wgt>
<wgt id='1839'> +7.8603795e+01 </wgt>
<wgt id='1840'> +7.8581445e+01 </wgt>
<wgt id='1841'> +7.8559339e+01 </wgt>
<wgt id='1842'> +7.8537073e+01 </wgt>
<wgt id='1843'> +7.8514697e+01 </wgt>
<wgt id='1844'> +7.8492613e+01 </wgt>
<wgt id='1845'> +7.8470267e+01 </wgt>
<wgt id='1846'> +7.8447914e+01 </wgt>
<wgt id='1847'> +7.8425857e+01 </wgt>
<wgt id='1848'> +7.8403497e+01 </wgt>
<wgt id='1849'> +7.8381171e+01 </wgt>
<wgt id='1850'> +7.8359252e+01 </wgt>
<wgt id='1851'> +7.8336895e+01 </wgt>
<wgt id='1852'> +7.8314529e+01 </wgt>
<wgt id='1853'> +7.8292493e+01 </wgt>
<wgt id='1854'> +7.8270150e+01 </wgt>
<wgt id='1855'> +7.9370994e+01 </wgt>
<wgt id='1856'> +8.0466941e+01 </wgt>
<wgt id='1857'> +7.9137363e+01 </wgt>
<wgt id='1858'> +7.9599381e+01 </wgt>
<wgt id='1859'> +7.8555626e+01 </wgt>
<wgt id='1860'> +7.8524478e+01 </wgt>
<wgt id='1861'> +7.8157421e+01 </wgt>
<wgt id='1862'> +7.7395120e+01 </wgt>
<wgt id='1863'> +7.9130314e+01 </wgt>
<wgt id='1864'> +7.9912716e+01 </wgt>
<wgt id='1865'> +8.0571280e+01 </wgt>
<wgt id='1866'> +7.7369761e+01 </wgt>
<wgt id='1867'> +7.9106514e+01 </wgt>
<wgt id='1868'> +7.9142785e+01 </wgt>
<wgt id='1869'> +7.8099929e+01 </wgt>
<wgt id='1870'> +7.9186906e+01 </wgt>
<wgt id='1871'> +7.8673655e+01 </wgt>
<wgt id='1872'> +8.1804069e+01 </wgt>
<wgt id='1873'> +7.6824077e+01 </wgt>
<wgt id='1874'> +8.0456541e+01 </wgt>
<wgt id='1875'> +7.9404929e+01 </wgt>
<wgt id='1876'> +7.9672142e+01 </wgt>
<wgt id='1877'> +8.1730036e+01 </wgt>
<wgt id='1878'> +8.1355726e+01 </wgt>
<wgt id='1879'> +7.8358158e+01 </wgt>
<wgt id='1880'> +7.9174691e+01 </wgt>
<wgt id='1881'> +8.0896254e+01 </wgt>
<wgt id='1882'> +7.8427236e+01 </wgt>
<wgt id='1883'> +7.9730966e+01 </wgt>
<wgt id='1884'> +8.0300668e+01 </wgt>
<wgt id='1885'> +7.9338313e+01 </wgt>
<wgt id='1886'> +7.9688584e+01 </wgt>
<wgt id='1887'> +7.8890912e+01 </wgt>
<wgt id='1888'> +7.9649606e+01 </wgt>
<wgt id='1889'> +7.8793426e+01 </wgt>
<wgt id='1890'> +7.9407502e+01 </wgt>
<wgt id='1891'> +7.9488506e+01 </wgt>
<wgt id='1892'> +7.9750721e+01 </wgt>
<wgt id='1893'> +7.9428548e+01 </wgt>
<wgt id='1894'> +7.9288312e+01 </wgt>
<wgt id='1895'> +7.9137937e+01 </wgt>
<wgt id='1896'> +7.9205760e+01 </wgt>
<wgt id='1897'> +7.9449178e+01 </wgt>
<wgt id='1898'> +7.8928916e+01 </wgt>
<wgt id='1899'> +7.9422911e+01 </wgt>
<wgt id='1900'> +7.9211922e+01 </wgt>
<wgt id='1901'> +7.8853284e+01 </wgt>
<wgt id='1902'> +7.9416343e+01 </wgt>
<wgt id='1903'> +7.9638908e+01 </wgt>
<wgt id='1904'> +7.9073761e+01 </wgt>
<wgt id='1905'> +7.9809794e+01 </wgt>
<wgt id='1906'> +7.9733889e+01 </wgt>
<wgt id='1907'> +7.9162041e+01 </wgt>
<wgt id='1908'> +7.9398202e+01 </wgt>
<wgt id='1909'> +7.9315613e+01 </wgt>
<wgt id='1910'> +7.9117791e+01 </wgt>
<wgt id='1911'> +7.9824921e+01 </wgt>
<wgt id='1912'> +7.9405963e+01 </wgt>
<wgt id='1913'> +7.9480187e+01 </wgt>
<wgt id='1914'> +7.9462195e+01 </wgt>
<wgt id='1915'> +7.9526770e+01 </wgt>
<wgt id='1916'> +7.9411266e+01 </wgt>
<wgt id='1917'> +7.9339322e+01 </wgt>
<wgt id='1918'> +7.9594742e+01 </wgt>
<wgt id='1919'> +7.9231460e+01 </wgt>
<wgt id='1920'> +7.9290405e+01 </wgt>
<wgt id='1921'> +7.9228635e+01 </wgt>
<wgt id='1922'> +7.9542733e+01 </wgt>
<wgt id='1923'> +7.9323197e+01 </wgt>
<wgt id='1924'> +7.9500585e+01 </wgt>
<wgt id='1925'> +7.9304872e+01 </wgt>
<wgt id='1926'> +7.9335572e+01 </wgt>
<wgt id='1927'> +7.9363846e+01 </wgt>
<wgt id='1928'> +7.9459292e+01 </wgt>
<wgt id='1929'> +7.9355754e+01 </wgt>
<wgt id='1930'> +7.9285925e+01 </wgt>
<wgt id='1931'> +7.9265699e+01 </wgt>
<wgt id='1932'> +7.9371359e+01 </wgt>
<wgt id='1933'> +7.9517538e+01 </wgt>
<wgt id='1934'> +7.9268100e+01 </wgt>
<wgt id='1935'> +7.9388292e+01 </wgt>
<wgt id='1936'> +7.9335358e+01 </wgt>
<wgt id='1937'> +7.9434386e+01 </wgt>
<wgt id='1938'> +7.9307158e+01 </wgt>
<wgt id='1939'> +7.9399479e+01 </wgt>
<wgt id='1940'> +7.9261481e+01 </wgt>
<wgt id='1941'> +7.9386460e+01 </wgt>
<wgt id='1942'> +7.9272284e+01 </wgt>
<wgt id='1943'> +7.9312703e+01 </wgt>
<wgt id='1944'> +7.9332404e+01 </wgt>
<wgt id='1945'> +7.9319050e+01 </wgt>
<wgt id='1946'> +7.9413454e+01 </wgt>
<wgt id='1947'> +7.9343805e+01 </wgt>
<wgt id='1948'> +7.9397339e+01 </wgt>
<wgt id='1949'> +7.9327852e+01 </wgt>
<wgt id='1950'> +7.9379290e+01 </wgt>
<wgt id='1951'> +7.9369790e+01 </wgt>
<wgt id='1952'> +7.9354314e+01 </wgt>
<wgt id='1953'> +7.9361271e+01 </wgt>
<wgt id='1954'> +7.9309957e+01 </wgt>
<wgt id='1955'> +7.9364120e+01 </wgt>
<wgt id='1956'> +7.9370370e+01 </wgt>
<wgt id='1957'> +7.9374366e+01 </wgt>
<wgt id='1958'> +7.9371642e+01 </wgt>
<wgt id='1959'> +7.9371751e+01 </wgt>
<wgt id='1960'> +7.9372889e+01 </wgt>
<wgt id='1961'> +7.9371268e+01 </wgt>
<wgt id='1962'> +7.9375079e+01 </wgt>
</rwgt>
</event>
<event npLO=" -1 " npNLO=" 1 ">
 8      1 +1.5146096e+02 1.25529800e+01 7.54677110e-03 1.63302390e-01
        4 -1    0    0  502    0 +0.0000000000e+00 +0.0000000000e+00 +1.0807076000e+02 1.0807076000e+02 0.0000000000e+00 0.0000e+00 9.0000e+00
       21 -1    0    0  503  501 +0.0000000000e+00 +0.0000000000e+00 -4.6636281000e+01 4.6636281000e+01 0.0000000000e+00 0.0000e+00 9.0000e+00
       23  2    1    2    0    0 +1.3780062000e+01 -1.5383273000e+00 +8.6606175000e+01 1.2557935000e+02 8.9873726000e+01 0.0000e+00 0.0000e+00
       11  1    3    3    0    0 -2.7132253000e+01 -1.9086416000e+01 +6.5458523000e+01 7.3384390000e+01 0.0000000000e+00 0.0000e+00 9.0000e+00
      -11  1    3    3    0    0 +2.3772362000e+01 +7.9659047000e+00 +2.6383478000e+00 2.5209953000e+01 0.0000000000e+00 0.0000e+00 9.0000e+00
       22  1    3    3    0    0 +1.7139952000e+01 +9.5821839000e+00 +1.8509304000e+01 2.6985006000e+01 0.0000000000e+00 0.0000e+00 9.0000e+00
        4  1    1    2  503    0 -1.1121067000e+01 -4.4583135000e-01 -2.1270800000e+01 2.4006746000e+01 0.0000000000e+00 0.0000e+00 9.0000e+00
       21  1    1    2  502  501 -2.6589947000e+00 +1.9841586000e+00 -3.9008941000e+00 5.1209485000e+00 0.0000000000e+00 0.0000e+00 9.0000e+00
#aMCatNLO 2  0  0  2  6 0.18017636E+02 0.00000000E+00 -9  7  0 0.00000000E+00 0.00000000E+00 0.00000000E+00 0.00000000E+00 0.00000000E+00
<rwgt>
<wgt id='1001'> +1.5146000e+02 </wgt>
<wgt id='1002'> +1.5146000e+02 </wgt>
<wgt id='1003'> +1.3614000e+02 </wgt>
<wgt id='1004'> +1.5173000e+02 </wgt>
<wgt id='1005'> +1.4957000e+02 </wgt>
<wgt id='1006'> +1.4973000e+02 </wgt>
<wgt id='1007'> +1.2816000e+02 </wgt>
<wgt id='1008'> +1.5269000e+02 </wgt>
<wgt id='1009'> +1.5409000e+02 </wgt>
<wgt id='1010'> +1.5150000e+02 </wgt>
<wgt id='1011'> +1.5131000e+02 </wgt>
<wgt id='1012'> +1.4448000e+02 </wgt>
<wgt id='1013'> +1.4693000e+02 </wgt>
<wgt id='1014'> +1.5522000e+02 </wgt>
<wgt id='1015'> +1.5464000e+02 </wgt>
<wgt id='1016'> +1.4536000e+02 </wgt>
<wgt id='1017'> +1.5148000e+02 </wgt>
<wgt id='1018'> +1.5489000e+02 </wgt>
<wgt id='1019'> +1.4810000e+02 </wgt>
<wgt id='1020'> +1.5010000e+02 </wgt>
<wgt id='1021'> +1.5443000e+02 </wgt>
<wgt id='1022'> +1.5448000e+02 </wgt>
<wgt id='1023'> +1.5212000e+02 </wgt>
<wgt id='1024'> +1.5004000e+02 </wgt>
<wgt id='1025'> +1.6533000e+02 </wgt>
<wgt id='1026'> +1.4984000e+02 </wgt>
<wgt id='1027'> +1.5440000e+02 </wgt>
<wgt id='1028'> +1.4825000e+02 </wgt>
<wgt id='1029'> +1.4972000e+02 </wgt>
<wgt id='1030'> +1.5017000e+02 </wgt>
<wgt id='1031'> +1.4905000e+02 </wgt>
<wgt id='1032'> +1.5526000e+02 </wgt>
<wgt id='1033'> +1.5039000e+02 </wgt>
<wgt id='1034'> +1.4570000e+02 </wgt>
<wgt id='1035'> +1.5549000e+02 </wgt>
<wgt id='1036'> +1.5282000e+02 </wgt>
<wgt id='1037'> +1.5605000e+02 </wgt>
<wgt id='1038'> +1.5813000e+02 </wgt>
<wgt id='1039'> +1.5379000e+02 </wgt>
<wgt id='1040'> +1.5145000e+02 </wgt>
<wgt id='1041'> +1.4567000e+02 </wgt>
<wgt id='1042'> +1.5465000e+02 </wgt>
<wgt id='1043'> +1.5138000e+02 </wgt>
<wgt id='1044'> +1.5412000e+02 </wgt>
<wgt id='1045'> +1.5383000e+02 </wgt>
<wgt id='1046'> +1.4974000e+02 </wgt>
<wgt id='1047'> +1.5379000e+02 </wgt>
<wgt id='1048'> +1.5353000e+02 </wgt>
<wgt id='1049'> +1.4876000e+02 </wgt>
<wgt id='1050'> +1.4839000e+02 </wgt>
<wgt id='1051'> +1.5292000e+02 </wgt>
<wgt id='1052'> +1.5208000e+02 </wgt>
<wgt id='1053'> +1.5184000e+02 </wgt>
<wgt id='1054'> +1.5049000e+02 </wgt>
<wgt id='1055'> +1.5440000e+02 </wgt>
<wgt id='1056'> +1.5138000e+02 </wgt>
<wgt id='1057'> +1.5195000e+02 </wgt>
<wgt id='1058'> +1.4638000e+02 </wgt>
<wgt id='1059'> +1.6004000e+02 </wgt>
<wgt id='1060'> +1.4983000e+02 </wgt>
<wgt id='1061'> +1.5333000e+02 </wgt>
<wgt id='1062'> +1.5123000e+02 </wgt>
<wgt id='1063'> +1.5407000e+02 </wgt>
<wgt id='1064'> +1.5160000e+02 </wgt>
<wgt id='1065'> +1.5528000e+02 </wgt>
<wgt id='1066'> +1.4848000e+02 </wgt>
<wgt id='1067'> +1.5440000e+02 </wgt>
<wgt id='1068'> +1.5184000e+02 </wgt>
<wgt id='1069'> +1.5975000e+02 </wgt>
<wgt id='1070'> +1.4873000e+02 </wgt>
<wgt id='1071'> +1.4687000e+02 </wgt>
<wgt id='1072'> +1.5221000e+02 </wgt>
<wgt id='1073'> +1.5645000e+02 </wgt>
<wgt id='1074'> +1.5042000e+02 </wgt>
<wgt id='1075'> +1.3737000e+02 </wgt>
<wgt id='1076'> +1.5235000e+02 </wgt>
<wgt id='1077'> +1.4992000e+02 </wgt>
<wgt id='1078'> +1.4622000e+02 </wgt>
<wgt id='1079'> +1.5283000e+02 </wgt>
<wgt id='1080'> +1.5863000e+02 </wgt>
<wgt id='1081'> +1.5097000e+02 </wgt>
<wgt id='1082'> +1.5276000e+02 </wgt>
<wgt id='1083'> +1.5238000e+02 </wgt>
<wgt id='1084'> +1.4941000e+02 </wgt>
<wgt id='1085'> +1.5308000e+02 </wgt>
<wgt id='1086'> +1.5247000e+02 </wgt>
<wgt id='1087'> +1.4586000e+02 </wgt>
<wgt id='1088'> +1.5070000e+02 </wgt>
<wgt id='1089'> +1.5018000e+02 </wgt>
<wgt id='1090'> +1.5194000e+02 </wgt>
<wgt id='1091'> +1.5623000e+02 </wgt>
<wgt id='1092'> +1.5027000e+02 </wgt>
<wgt id='1093'> +1.4704000e+02 </wgt>
<wgt id='1094'> +1.5671000e+02 </wgt>
<wgt id='1095'> +1.5031000e+02 </wgt>
<wgt id='1096'> +1.5541000e+02 </wgt>
<wgt id='1097'> +1.4813000e+02 </wgt>
<wgt id='1098'> +1.5487000e+02 </wgt>
<wgt id='1099'> +1.5264000e+02 </wgt>
<wgt id='1100'> +1.5987000e+02 </wgt>
<wgt id='1101'> +1.5726000e+02 </wgt>
<wgt id='1102'> +1.5073000e+02 </wgt>
<wgt id='1103'> +1.4673000e+02 </wgt>
<wgt id='1104'> +1.5492000e+02 </wgt>
<wgt id='1105'> +1.5146096e+02 </wgt>
<wgt id='1106'> +5.7645835e+01 </wgt>
<wgt id='1107'> +1.0410157e+02 </wgt>
<wgt id='1108'> +8.6163252e+01 </wgt>
<wgt id='1109'> +6.5587233e+01 </wgt>
<wgt id='1110'> +1.1844280e+02 </wgt>
<wgt id='1111'> +6.3463265e+01 </wgt>
<wgt id='1112'> +4.8308064e+01 </wgt>
<wgt id='1113'> +8.7238660e+01 </wgt>
<wgt id='1114'> +6.9662028e+01 </wgt>
<wgt id='1115'> +6.0101480e+01 </wgt>
<wgt id='1116'> +7.0133486e+01 </wgt>
<wgt id='1117'> +7.2941583e+01 </wgt>
<wgt id='1118'> +7.0681467e+01 </wgt>
<wgt id='1119'> +7.0846623e+01 </wgt>
<wgt id='1120'> +6.4770353e+01 </wgt>
<wgt id='1121'> +7.0003355e+01 </wgt>
<wgt id='1122'> +7.2263672e+01 </wgt>
<wgt id='1123'> +7.5272970e+01 </wgt>
<wgt id='1124'> +7.2283299e+01 </wgt>
<wgt id='1125'> +7.0265145e+01 </wgt>
<wgt id='1126'> +6.9366955e+01 </wgt>
<wgt id='1127'> +7.0579152e+01 </wgt>
<wgt id='1128'> +6.7872918e+01 </wgt>
<wgt id='1129'> +7.2891471e+01 </wgt>
<wgt id='1130'> +7.1036411e+01 </wgt>
<wgt id='1131'> +7.1542430e+01 </wgt>
<wgt id='1132'> +7.0065357e+01 </wgt>
<wgt id='1133'> +6.9099450e+01 </wgt>
<wgt id='1134'> +7.4589276e+01 </wgt>
<wgt id='1135'> +7.0030930e+01 </wgt>
<wgt id='1136'> +6.7473477e+01 </wgt>
<wgt id='1137'> +6.7982519e+01 </wgt>
<wgt id='1138'> +6.8774773e+01 </wgt>
<wgt id='1139'> +7.1024301e+01 </wgt>
<wgt id='1140'> +6.7540274e+01 </wgt>
<wgt id='1141'> +6.9652320e+01 </wgt>
<wgt id='1142'> +6.8378978e+01 </wgt>
<wgt id='1143'> +6.9990517e+01 </wgt>
<wgt id='1144'> +7.2434677e+01 </wgt>
<wgt id='1145'> +6.5890687e+01 </wgt>
<wgt id='1146'> +7.2436220e+01 </wgt>
<wgt id='1147'> +6.7636473e+01 </wgt>
<wgt id='1148'> +6.9009486e+01 </wgt>
<wgt id='1149'> +6.9637874e+01 </wgt>
<wgt id='1150'> +6.8495677e+01 </wgt>
<wgt id='1151'> +7.0319662e+01 </wgt>
<wgt id='1152'> +7.1306565e+01 </wgt>
<wgt id='1153'> +6.8722958e+01 </wgt>
<wgt id='1154'> +6.8551244e+01 </wgt>
<wgt id='1155'> +7.0811550e+01 </wgt>
<wgt id='1156'> +6.6393581e+01 </wgt>
<wgt id='1157'> +6.7036247e+01 </wgt>
<wgt id='1158'> +6.5301309e+01 </wgt>
<wgt id='1159'> +6.7880610e+01 </wgt>
<wgt id='1160'> +6.5754609e+01 </wgt>
<wgt id='1161'> +6.7192702e+01 </wgt>
<wgt id='1162'> +6.9386659e+01 </wgt>
<wgt id='1163'> +6.9407111e+01 </wgt>
<wgt id='1164'> +6.8704285e+01 </wgt>
<wgt id='1165'> +6.7748271e+01 </wgt>
<wgt id='1166'> +7.2287038e+01 </wgt>
<wgt id='1167'> +7.1126778e+01 </wgt>
<wgt id='1168'> +6.4967721e+01 </wgt>
<wgt id='1169'> +6.6235655e+01 </wgt>
<wgt id='1170'> +6.8289096e+01 </wgt>
<wgt id='1171'> +6.5937658e+01 </wgt>
<wgt id='1172'> +7.0706138e+01 </wgt>
<wgt id='1173'> +7.5495006e+01 </wgt>
<wgt id='1174'> +6.7203817e+01 </wgt>
<wgt id='1175'> +6.8756308e+01 </wgt>
<wgt id='1176'> +7.1066828e+01 </wgt>
<wgt id='1177'> +6.7514867e+01 </wgt>
<wgt id='1178'> +7.1094691e+01 </wgt>
<wgt id='1179'> +6.7361428e+01 </wgt>
<wgt id='1180'> +6.7489228e+01 </wgt>
<wgt id='1181'> +6.3518539e+01 </wgt>
<wgt id='1182'> +7.1680433e+01 </wgt>
<wgt id='1183'> +6.9410676e+01 </wgt>
<wgt id='1184'> +6.8223588e+01 </wgt>
<wgt id='1185'> +7.4541493e+01 </wgt>
<wgt id='1186'> +6.7323917e+01 </wgt>
<wgt id='1187'> +7.6788781e+01 </wgt>
<wgt id='1188'> +7.6897346e+01 </wgt>
<wgt id='1189'> +7.2037301e+01 </wgt>
<wgt id='1190'> +6.5762093e+01 </wgt>
<wgt id='1191'> +7.5257868e+01 </wgt>
<wgt id='1192'> +7.0813836e+01 </wgt>
<wgt id='1193'> +7.1475421e+01 </wgt>
<wgt id='1194'> +6.8853970e+01 </wgt>
<wgt id='1195'> +6.7422007e+01 </wgt>
<wgt id='1196'> +7.1036411e+01 </wgt>
<wgt id='1197'> +6.7303115e+01 </wgt>
<wgt id='1198'> +7.1878956e+01 </wgt>
<wgt id='1199'> +7.1875162e+01 </wgt>
<wgt id='1200'> +6.2989752e+01 </wgt>
<wgt id='1201'> +7.1455382e+01 </wgt>
<wgt id='1202'> +6.9042789e+01 </wgt>
<wgt id='1203'> +7.8466480e+01 </wgt>
<wgt id='1204'> +6.8090248e+01 </wgt>
<wgt id='1205'> +6.7674115e+01 </wgt>
<wgt id='1206'> +7.4732969e+01 </wgt>
<wgt id='1207'> +7.2120938e+01 </wgt>
<wgt id='1208'> +7.0523302e+01 </wgt>
<wgt id='1209'> +6.7744556e+01 </wgt>
<wgt id='1210'> +6.9123373e+01 </wgt>
<wgt id='1211'> +6.4567395e+01 </wgt>
<wgt id='1212'> +7.2822882e+01 </wgt>
<wgt id='1213'> +7.1633508e+01 </wgt>
<wgt id='1214'> +7.1158216e+01 </wgt>
<wgt id='1215'> +7.6529224e+01 </wgt>
<wgt id='1216'> +6.6947798e+01 </wgt>
<wgt id='1217'> +6.7269561e+01 </wgt>
<wgt id='1218'> +6.6532202e+01 </wgt>
<wgt id='1219'> +6.7411058e+01 </wgt>
<wgt id='1220'> +6.6967318e+01 </wgt>
<wgt id='1221'> +6.7430092e+01 </wgt>
<wgt id='1222'> +6.7106728e+01 </wgt>
<wgt id='1223'> +6.6980033e+01 </wgt>
<wgt id='1224'> +6.6569281e+01 </wgt>
<wgt id='1225'> +6.6538772e+01 </wgt>
<wgt id='1226'> +6.6993681e+01 </wgt>
<wgt id='1227'> +6.7200133e+01 </wgt>
<wgt id='1228'> +6.7613589e+01 </wgt>
<wgt id='1229'> +6.5984165e+01 </wgt>
<wgt id='1230'> +6.7072693e+01 </wgt>
<wgt id='1231'> +6.7617844e+01 </wgt>
<wgt id='1232'> +6.6675390e+01 </wgt>
<wgt id='1233'> +6.7702946e+01 </wgt>
<wgt id='1234'> +6.6855736e+01 </wgt>
<wgt id='1235'> +6.6639953e+01 </wgt>
<wgt id='1236'> +6.7303656e+01 </wgt>
<wgt id='1237'> +6.6008928e+01 </wgt>
<wgt id='1238'> +6.6930537e+01 </wgt>
<wgt id='1239'> +6.7010095e+01 </wgt>
<wgt id='1240'> +6.6303375e+01 </wgt>
<wgt id='1241'> +6.7463101e+01 </wgt>
<wgt id='1242'> +6.7007421e+01 </wgt>
<wgt id='1243'> +6.6835617e+01 </wgt>
<wgt id='1244'> +6.7033148e+01 </wgt>
<wgt id='1245'> +6.6200586e+01 </wgt>
<wgt id='1246'> +6.6890204e+01 </wgt>
<wgt id='1247'> +6.7015777e+01 </wgt>
<wgt id='1248'> +6.7156126e+01 </wgt>
<wgt id='1249'> +6.6736218e+01 </wgt>
<wgt id='1250'> +6.6796013e+01 </wgt>
<wgt id='1251'> +6.6938713e+01 </wgt>
<wgt id='1252'> +6.7050631e+01 </wgt>
<wgt id='1253'> +6.7149410e+01 </wgt>
<wgt id='1254'> +6.7066868e+01 </wgt>
<wgt id='1255'> +6.7172683e+01 </wgt>
<wgt id='1256'> +6.6863931e+01 </wgt>
<wgt id='1257'> +6.7560394e+01 </wgt>
<wgt id='1258'> +6.7150186e+01 </wgt>
<wgt id='1259'> +6.6898426e+01 </wgt>
<wgt id='1260'> +6.7178094e+01 </wgt>
<wgt id='1261'> +6.6753920e+01 </wgt>
<wgt id='1262'> +6.6935374e+01 </wgt>
<wgt id='1263'> +6.7179989e+01 </wgt>
<wgt id='1264'> +6.7006221e+01 </wgt>
<wgt id='1265'> +6.6565654e+01 </wgt>
<wgt id='1266'> +6.6822613e+01 </wgt>
<wgt id='1267'> +6.6705261e+01 </wgt>
<wgt id='1268'> +6.7286384e+01 </wgt>
<wgt id='1269'> +6.7073772e+01 </wgt>
<wgt id='1270'> +6.7195710e+01 </wgt>
<wgt id='1271'> +6.7041663e+01 </wgt>
<wgt id='1272'> +6.6604259e+01 </wgt>
<wgt id='1273'> +6.7143473e+01 </wgt>
<wgt id='1274'> +6.7052010e+01 </wgt>
<wgt id='1275'> +6.6956047e+01 </wgt>
<wgt id='1276'> +6.6810690e+01 </wgt>
<wgt id='1277'> +6.6709700e+01 </wgt>
<wgt id='1278'> +6.6678305e+01 </wgt>
<wgt id='1279'> +6.6750768e+01 </wgt>
<wgt id='1280'> +6.6905137e+01 </wgt>
<wgt id='1281'> +6.6929631e+01 </wgt>
<wgt id='1282'> +6.6611595e+01 </wgt>
<wgt id='1283'> +6.7223387e+01 </wgt>
<wgt id='1284'> +6.7105271e+01 </wgt>
<wgt id='1285'> +6.7080123e+01 </wgt>
<wgt id='1286'> +6.7115747e+01 </wgt>
<wgt id='1287'> +6.6799732e+01 </wgt>
<wgt id='1288'> +6.7060684e+01 </wgt>
<wgt id='1289'> +6.6993090e+01 </wgt>
<wgt id='1290'> +6.6656784e+01 </wgt>
<wgt id='1291'> +6.6967133e+01 </wgt>
<wgt id='1292'> +6.6784774e+01 </wgt>
<wgt id='1293'> +6.6863486e+01 </wgt>
<wgt id='1294'> +6.6885933e+01 </wgt>
<wgt id='1295'> +6.7075387e+01 </wgt>
<wgt id='1296'> +6.6878430e+01 </wgt>
<wgt id='1297'> +6.7036427e+01 </wgt>
<wgt id='1298'> +6.7108484e+01 </wgt>
<wgt id='1299'> +6.7022213e+01 </wgt>
<wgt id='1300'> +6.6858434e+01 </wgt>
<wgt id='1301'> +6.6766389e+01 </wgt>
<wgt id='1302'> +6.6985770e+01 </wgt>
<wgt id='1303'> +6.7099350e+01 </wgt>
<wgt id='1304'> +6.6931535e+01 </wgt>
<wgt id='1305'> +6.6956037e+01 </wgt>
<wgt id='1306'> +6.6897219e+01 </wgt>
<wgt id='1307'> +6.7078754e+01 </wgt>
<wgt id='1308'> +6.7013412e+01 </wgt>
<wgt id='1309'> +6.6770057e+01 </wgt>
<wgt id='1310'> +6.7074667e+01 </wgt>
<wgt id='1311'> +6.7029496e+01 </wgt>
<wgt id='1312'> +6.6816270e+01 </wgt>
<wgt id='1313'> +6.6871367e+01 </wgt>
<wgt id='1314'> +6.7039361e+01 </wgt>
<wgt id='1315'> +6.6897111e+01 </wgt>
<wgt id='1316'> +6.6875719e+01 </wgt>
<wgt id='1317'> +6.2717430e+01 </wgt>
<wgt id='1318'> +7.1437146e+01 </wgt>
<wgt id='1319'> +6.1930729e+01 </wgt>
<wgt id='1320'> +7.4503347e+01 </wgt>
<wgt id='1321'> +7.4548270e+01 </wgt>
<wgt id='1322'> +7.4721470e+01 </wgt>
<wgt id='1323'> +7.6993211e+01 </wgt>
<wgt id='1324'> +7.3313423e+01 </wgt>
<wgt id='1325'> +7.4715683e+01 </wgt>
<wgt id='1326'> +7.4249651e+01 </wgt>
<wgt id='1327'> +7.5920093e+01 </wgt>
<wgt id='1328'> +7.3761387e+01 </wgt>
<wgt id='1329'> +7.2469718e+01 </wgt>
<wgt id='1330'> +7.5980392e+01 </wgt>
<wgt id='1331'> +7.6259341e+01 </wgt>
<wgt id='1332'> +7.3448908e+01 </wgt>
<wgt id='1333'> +7.0862966e+01 </wgt>
<wgt id='1334'> +7.6673891e+01 </wgt>
<wgt id='1335'> +7.5532555e+01 </wgt>
<wgt id='1336'> +7.3815226e+01 </wgt>
<wgt id='1337'> +7.3449362e+01 </wgt>
<wgt id='1338'> +7.5754048e+01 </wgt>
<wgt id='1339'> +7.5835544e+01 </wgt>
<wgt id='1340'> +7.3026204e+01 </wgt>
<wgt id='1341'> +7.4832024e+01 </wgt>
<wgt id='1342'> +7.3825747e+01 </wgt>
<wgt id='1343'> +7.3917881e+01 </wgt>
<wgt id='1344'> +7.5036649e+01 </wgt>
<wgt id='1345'> +7.3265334e+01 </wgt>
<wgt id='1346'> +7.5632066e+01 </wgt>
<wgt id='1347'> +7.4161440e+01 </wgt>
<wgt id='1348'> +7.4964873e+01 </wgt>
<wgt id='1349'> +7.3723951e+01 </wgt>
<wgt id='1350'> +7.4773025e+01 </wgt>
<wgt id='1351'> +7.4670273e+01 </wgt>
<wgt id='1352'> +7.4286011e+01 </wgt>
<wgt id='1353'> +7.4372551e+01 </wgt>
<wgt id='1354'> +7.4765125e+01 </wgt>
<wgt id='1355'> +7.5944134e+01 </wgt>
<wgt id='1356'> +7.3107784e+01 </wgt>
<wgt id='1357'> +7.5365015e+01 </wgt>
<wgt id='1358'> +7.3126782e+01 </wgt>
<wgt id='1359'> +7.4530075e+01 </wgt>
<wgt id='1360'> +7.4373294e+01 </wgt>
<wgt id='1361'> +7.5339957e+01 </wgt>
<wgt id='1362'> +7.3694816e+01 </wgt>
<wgt id='1363'> +7.5630285e+01 </wgt>
<wgt id='1364'> +7.3410436e+01 </wgt>
<wgt id='1365'> +7.3267649e+01 </wgt>
<wgt id='1366'> +7.4137531e+01 </wgt>
<wgt id='1367'> +7.3219393e+01 </wgt>
<wgt id='1368'> +7.5541383e+01 </wgt>
<wgt id='1369'> +7.4905366e+01 </wgt>
<wgt id='1370'> +7.2549632e+01 </wgt>
<wgt id='1371'> +7.4393247e+01 </wgt>
<wgt id='1372'> +7.4335328e+01 </wgt>
<wgt id='1373'> +7.2590018e+01 </wgt>
<wgt id='1374'> +7.5251130e+01 </wgt>
<wgt id='1375'> +7.3722507e+01 </wgt>
<wgt id='1376'> +7.5381715e+01 </wgt>
<wgt id='1377'> +7.0289581e+01 </wgt>
<wgt id='1378'> +7.8655540e+01 </wgt>
<wgt id='1379'> +7.4856676e+01 </wgt>
<wgt id='1380'> +7.1025696e+01 </wgt>
<wgt id='1381'> +7.8379008e+01 </wgt>
<wgt id='1382'> +5.6773492e+01 </wgt>
<wgt id='1383'> +7.4539867e+01 </wgt>
<wgt id='1384'> +7.3616112e+01 </wgt>
<wgt id='1385'> +9.7514482e+01 </wgt>
<wgt id='1386'> +9.7705675e+01 </wgt>
<wgt id='1387'> +9.7294781e+01 </wgt>
<wgt id='1388'> +9.6768731e+01 </wgt>
<wgt id='1389'> +9.8794536e+01 </wgt>
<wgt id='1390'> +9.7300923e+01 </wgt>
<wgt id='1391'> +9.7764847e+01 </wgt>
<wgt id='1392'> +9.7770269e+01 </wgt>
<wgt id='1393'> +9.7334421e+01 </wgt>
<wgt id='1394'> +9.6943826e+01 </wgt>
<wgt id='1395'> +9.8220021e+01 </wgt>
<wgt id='1396'> +9.6374240e+01 </wgt>
<wgt id='1397'> +9.8105683e+01 </wgt>
<wgt id='1398'> +9.7664348e+01 </wgt>
<wgt id='1399'> +9.7384020e+01 </wgt>
<wgt id='1400'> +9.7308782e+01 </wgt>
<wgt id='1401'> +9.7653896e+01 </wgt>
<wgt id='1402'> +9.7222387e+01 </wgt>
<wgt id='1403'> +9.7646016e+01 </wgt>
<wgt id='1404'> +9.8713170e+01 </wgt>
<wgt id='1405'> +9.6931286e+01 </wgt>
<wgt id='1406'> +9.7433103e+01 </wgt>
<wgt id='1407'> +9.7654088e+01 </wgt>
<wgt id='1408'> +9.7492894e+01 </wgt>
<wgt id='1409'> +9.7558819e+01 </wgt>
<wgt id='1410'> +9.7487191e+01 </wgt>
<wgt id='1411'> +9.7508474e+01 </wgt>
<wgt id='1412'> +9.8695391e+01 </wgt>
<wgt id='1413'> +9.6018207e+01 </wgt>
<wgt id='1414'> +9.8071512e+01 </wgt>
<wgt id='1415'> +9.7154555e+01 </wgt>
<wgt id='1416'> +9.7619907e+01 </wgt>
<wgt id='1417'> +9.7449587e+01 </wgt>
<wgt id='1418'> +9.7829498e+01 </wgt>
<wgt id='1419'> +9.6841087e+01 </wgt>
<wgt id='1420'> +9.6757788e+01 </wgt>
<wgt id='1421'> +9.7611459e+01 </wgt>
<wgt id='1422'> +9.7781611e+01 </wgt>
<wgt id='1423'> +9.7202782e+01 </wgt>
<wgt id='1424'> +9.7675545e+01 </wgt>
<wgt id='1425'> +9.6946457e+01 </wgt>
<wgt id='1426'> +9.7703431e+01 </wgt>
<wgt id='1427'> +9.7334364e+01 </wgt>
<wgt id='1428'> +9.7923696e+01 </wgt>
<wgt id='1429'> +9.7507002e+01 </wgt>
<wgt id='1430'> +9.7543562e+01 </wgt>
<wgt id='1431'> +9.7485561e+01 </wgt>
<wgt id='1432'> +9.7480978e+01 </wgt>
<wgt id='1433'> +9.7543033e+01 </wgt>
<wgt id='1434'> +9.7418691e+01 </wgt>
<wgt id='1435'> +9.7628505e+01 </wgt>
<wgt id='1436'> +0.0000000e+00 </wgt>
<wgt id='1437'> +0.0000000e+00 </wgt>
<wgt id='1438'> +0.0000000e+00 </wgt>
<wgt id='1439'> +0.0000000e+00 </wgt>
<wgt id='1440'> +0.0000000e+00 </wgt>
<wgt id='1441'> +0.0000000e+00 </wgt>
<wgt id='1442'> +0.0000000e+00 </wgt>
<wgt id='1443'> +0.0000000e+00 </wgt>
<wgt id='1444'> +0.0000000e+00 </wgt>
<wgt id='1445'> +0.0000000e+00 </wgt>
<wgt id='1446'> +0.0000000e+00 </wgt>
<wgt id='1447'> +0.0000000e+00 </wgt>
<wgt id='1448'> +0.0000000e+00 </wgt>
<wgt id='1449'> +0.0000000e+00 </wgt>
<wgt id='1450'> +0.0000000e+00 </wgt>
<wgt id='1451'> +0.0000000e+00 </wgt>
<wgt id='1452'> +0.0000000e+00 </wgt>
<wgt id='1453'> +0.0000000e+00 </wgt>
<wgt id='1454'> +0.0000000e+00 </wgt>
<wgt id='1455'> +0.0000000e+00 </wgt>
<wgt id='1456'> +0.0000000e+00 </wgt>
<wgt id='1457'> +0.0000000e+00 </wgt>
<wgt id='1458'> +0.0000000e+00 </wgt>
<wgt id='1459'> +0.0000000e+00 </wgt>
<wgt id='1460'> +0.0000000e+00 </wgt>
<wgt id='1461'> +0.0000000e+00 </wgt>
<wgt id='1462'> +0.0000000e+00 </wgt>
<wgt id='1463'> +0.0000000e+00 </wgt>
<wgt id='1464'> +0.0000000e+00 </wgt>
<wgt id='1465'> +7.4818713e+01 </wgt>
<wgt id='1466'> +7.4912708e+01 </wgt>
<wgt id='1467'> +7.4566366e+01 </wgt>
<wgt id='1468'> +7.5775913e+01 </wgt>
<wgt id='1469'> +7.5412767e+01 </wgt>
<wgt id='1470'> +7.4636529e+01 </wgt>
<wgt id='1471'> +7.4699015e+01 </wgt>
<wgt id='1472'> +7.4699132e+01 </wgt>
<wgt id='1473'> +7.5287770e+01 </wgt>
<wgt id='1474'> +7.5691765e+01 </wgt>
<wgt id='1475'> +7.4490652e+01 </wgt>
<wgt id='1476'> +7.6480342e+01 </wgt>
<wgt id='1477'> +7.4842838e+01 </wgt>
<wgt id='1478'> +7.3605504e+01 </wgt>
<wgt id='1479'> +7.5408052e+01 </wgt>
<wgt id='1480'> +7.4037553e+01 </wgt>
<wgt id='1481'> +7.4982461e+01 </wgt>
<wgt id='1482'> +7.4889579e+01 </wgt>
<wgt id='1483'> +7.4565737e+01 </wgt>
<wgt id='1484'> +7.4923196e+01 </wgt>
<wgt id='1485'> +7.4598271e+01 </wgt>
<wgt id='1486'> +7.4674362e+01 </wgt>
<wgt id='1487'> +7.4814713e+01 </wgt>
<wgt id='1488'> +7.5095047e+01 </wgt>
<wgt id='1489'> +7.4683884e+01 </wgt>
<wgt id='1490'> +7.4988078e+01 </wgt>
<wgt id='1491'> +7.5283017e+01 </wgt>
<wgt id='1492'> +7.4959656e+01 </wgt>
<wgt id='1493'> +7.4831020e+01 </wgt>
<wgt id='1494'> +7.4916181e+01 </wgt>
<wgt id='1495'> +7.4915372e+01 </wgt>
<wgt id='1496'> +7.4917523e+01 </wgt>
<wgt id='1497'> +7.4894252e+01 </wgt>
<wgt id='1498'> +7.4932680e+01 </wgt>
<wgt id='1499'> +7.4909470e+01 </wgt>
<wgt id='1500'> +7.5032166e+01 </wgt>
<wgt id='1501'> +7.4957339e+01 </wgt>
<wgt id='1502'> +7.4870655e+01 </wgt>
<wgt id='1503'> +7.4932562e+01 </wgt>
<wgt id='1504'> +7.4821510e+01 </wgt>
<wgt id='1505'> +7.4939891e+01 </wgt>
<wgt id='1506'> +7.4964889e+01 </wgt>
<wgt id='1507'> +7.4900546e+01 </wgt>
<wgt id='1508'> +7.4928774e+01 </wgt>
<wgt id='1509'> +7.4867220e+01 </wgt>
<wgt id='1510'> +7.4977150e+01 </wgt>
<wgt id='1511'> +7.4934672e+01 </wgt>
<wgt id='1512'> +7.4893678e+01 </wgt>
<wgt id='1513'> +7.4970473e+01 </wgt>
<wgt id='1514'> +7.4873233e+01 </wgt>
<wgt id='1515'> +7.4919087e+01 </wgt>
<wgt id='1516'> +7.4893669e+01 </wgt>
<wgt id='1517'> +7.4854600e+01 </wgt>
<wgt id='1518'> +7.4900750e+01 </wgt>
<wgt id='1519'> +7.4886651e+01 </wgt>
<wgt id='1520'> +7.4890028e+01 </wgt>
<wgt id='1521'> +7.4898059e+01 </wgt>
<wgt id='1522'> +7.4931373e+01 </wgt>
<wgt id='1523'> +7.4899462e+01 </wgt>
<wgt id='1524'> +7.4923890e+01 </wgt>
<wgt id='1525'> +7.4906755e+01 </wgt>
<wgt id='1526'> +7.4897333e+01 </wgt>
<wgt id='1527'> +7.4910097e+01 </wgt>
<wgt id='1528'> +7.4889314e+01 </wgt>
<wgt id='1529'> +7.4909290e+01 </wgt>
<wgt id='1530'> +7.4897065e+01 </wgt>
<wgt id='1531'> +7.4897811e+01 </wgt>
<wgt id='1532'> +7.4979856e+01 </wgt>
<wgt id='1533'> +7.4950808e+01 </wgt>
<wgt id='1534'> +7.4924830e+01 </wgt>
<wgt id='1535'> +7.4917403e+01 </wgt>
<wgt id='1536'> +7.4870847e+01 </wgt>
<wgt id='1537'> +7.4932187e+01 </wgt>
<wgt id='1538'> +7.4905622e+01 </wgt>
<wgt id='1539'> +7.4862333e+01 </wgt>
<wgt id='1540'> +7.4885218e+01 </wgt>
<wgt id='1541'> +7.4924594e+01 </wgt>
<wgt id='1542'> +7.4938834e+01 </wgt>
<wgt id='1543'> +7.4851098e+01 </wgt>
<wgt id='1544'> +7.4928524e+01 </wgt>
<wgt id='1545'> +7.4941821e+01 </wgt>
<wgt id='1546'> +7.4899358e+01 </wgt>
<wgt id='1547'> +7.4882206e+01 </wgt>
<wgt id='1548'> +7.4938960e+01 </wgt>
<wgt id='1549'> +7.4923439e+01 </wgt>
<wgt id='1550'> +7.4946298e+01 </wgt>
<wgt id='1551'> +7.4904879e+01 </wgt>
<wgt id='1552'> +7.4985180e+01 </wgt>
<wgt id='1553'> +7.4940818e+01 </wgt>
<wgt id='1554'> +7.4923057e+01 </wgt>
<wgt id='1555'> +7.4927119e+01 </wgt>
<wgt id='1556'> +7.4905842e+01 </wgt>
<wgt id='1557'> +7.4862787e+01 </wgt>
<wgt id='1558'> +7.4907650e+01 </wgt>
<wgt id='1559'> +7.4900433e+01 </wgt>
<wgt id='1560'> +7.4883422e+01 </wgt>
<wgt id='1561'> +7.4889770e+01 </wgt>
<wgt id='1562'> +7.4880345e+01 </wgt>
<wgt id='1563'> +7.4942019e+01 </wgt>
<wgt id='1564'> +7.4917606e+01 </wgt>
<wgt id='1565'> +7.4933822e+01 </wgt>
<wgt id='1566'> +7.4918403e+01 </wgt>
<wgt id='1567'> +7.1821952e+01 </wgt>
<wgt id='1568'> +7.7829359e+01 </wgt>
<wgt id='1569'> +7.5022711e+01 </wgt>
<wgt id='1570'> +7.4820284e+01 </wgt>
<wgt id='1571'> +7.5508878e+01 </wgt>
<wgt id='1572'> +7.4111795e+01 </wgt>
<wgt id='1573'> +7.4716287e+01 </wgt>
<wgt id='1574'> +7.5499569e+01 </wgt>
<wgt id='1575'> +7.4890091e+01 </wgt>
<wgt id='1576'> +7.5180723e+01 </wgt>
<wgt id='1577'> +7.5198294e+01 </wgt>
<wgt id='1578'> +7.4971466e+01 </wgt>
<wgt id='1579'> +7.4721055e+01 </wgt>
<wgt id='1580'> +7.6484503e+01 </wgt>
<wgt id='1581'> +7.3972708e+01 </wgt>
<wgt id='1582'> +7.3648330e+01 </wgt>
<wgt id='1583'> +7.3825964e+01 </wgt>
<wgt id='1584'> +7.4541511e+01 </wgt>
<wgt id='1585'> +7.5865841e+01 </wgt>
<wgt id='1586'> +7.4939425e+01 </wgt>
<wgt id='1587'> +7.4922845e+01 </wgt>
<wgt id='1588'> +7.5100207e+01 </wgt>
<wgt id='1589'> +7.5588692e+01 </wgt>
<wgt id='1590'> +7.4823427e+01 </wgt>
<wgt id='1591'> +7.5082060e+01 </wgt>
<wgt id='1592'> +7.4950194e+01 </wgt>
<wgt id='1593'> +7.4796027e+01 </wgt>
<wgt id='1594'> +7.4936247e+01 </wgt>
<wgt id='1595'> +7.4855697e+01 </wgt>
<wgt id='1596'> +7.5162931e+01 </wgt>
<wgt id='1597'> +7.5164942e+01 </wgt>
<wgt id='1598'> +7.4998967e+01 </wgt>
<wgt id='1599'> +7.4963479e+01 </wgt>
<wgt id='1600'> +7.5225409e+01 </wgt>
<wgt id='1601'> +7.5005233e+01 </wgt>
<wgt id='1602'> +7.5050305e+01 </wgt>
<wgt id='1603'> +7.4977003e+01 </wgt>
<wgt id='1604'> +7.5076703e+01 </wgt>
<wgt id='1605'> +7.5032193e+01 </wgt>
<wgt id='1606'> +7.5097791e+01 </wgt>
<wgt id='1607'> +7.5003551e+01 </wgt>
<wgt id='1608'> +7.4946884e+01 </wgt>
<wgt id='1609'> +7.4949795e+01 </wgt>
<wgt id='1610'> +7.4938181e+01 </wgt>
<wgt id='1611'> +7.4969106e+01 </wgt>
<wgt id='1612'> +7.5088665e+01 </wgt>
<wgt id='1613'> +7.5020911e+01 </wgt>
<wgt id='1614'> +7.4981100e+01 </wgt>
<wgt id='1615'> +7.4993170e+01 </wgt>
<wgt id='1616'> +7.4945772e+01 </wgt>
<wgt id='1617'> +7.5080834e+01 </wgt>
<wgt id='1618'> +7.4964020e+01 </wgt>
<wgt id='1619'> +7.5057771e+01 </wgt>
<wgt id='1620'> +7.5031773e+01 </wgt>
<wgt id='1621'> +7.5027307e+01 </wgt>
<wgt id='1622'> +7.5046486e+01 </wgt>
<wgt id='1623'> +7.5021534e+01 </wgt>
<wgt id='1624'> +7.5036432e+01 </wgt>
<wgt id='1625'> +7.5011974e+01 </wgt>
<wgt id='1626'> +7.5016627e+01 </wgt>
<wgt id='1627'> +7.5048561e+01 </wgt>
<wgt id='1628'> +7.5032927e+01 </wgt>
<wgt id='1629'> +7.5040083e+01 </wgt>
<wgt id='1630'> +7.5043132e+01 </wgt>
<wgt id='1631'> +7.5015238e+01 </wgt>
<wgt id='1632'> +7.5021117e+01 </wgt>
<wgt id='1633'> +7.5029250e+01 </wgt>
<wgt id='1634'> +7.5012655e+01 </wgt>
<wgt id='1635'> +7.5021799e+01 </wgt>
<wgt id='1636'> +7.5011351e+01 </wgt>
<wgt id='1637'> +7.5046402e+01 </wgt>
<wgt id='1638'> +7.5020996e+01 </wgt>
<wgt id='1639'> +7.5004092e+01 </wgt>
<wgt id='1640'> +7.5080004e+01 </wgt>
<wgt id='1641'> +7.5042472e+01 </wgt>
<wgt id='1642'> +7.4985505e+01 </wgt>
<wgt id='1643'> +7.5030391e+01 </wgt>
<wgt id='1644'> +7.5024529e+01 </wgt>
<wgt id='1645'> +7.5064729e+01 </wgt>
<wgt id='1646'> +7.5037882e+01 </wgt>
<wgt id='1647'> +7.5060900e+01 </wgt>
<wgt id='1648'> +7.5014787e+01 </wgt>
<wgt id='1649'> +7.5018968e+01 </wgt>
<wgt id='1650'> +7.5056480e+01 </wgt>
<wgt id='1651'> +7.5049671e+01 </wgt>
<wgt id='1652'> +7.5001921e+01 </wgt>
<wgt id='1653'> +7.4990053e+01 </wgt>
<wgt id='1654'> +7.5021949e+01 </wgt>
<wgt id='1655'> +7.5074188e+01 </wgt>
<wgt id='1656'> +7.4974044e+01 </wgt>
<wgt id='1657'> +7.4989128e+01 </wgt>
<wgt id='1658'> +7.4987826e+01 </wgt>
<wgt id='1659'> +7.5021179e+01 </wgt>
<wgt id='1660'> +7.4991815e+01 </wgt>
<wgt id='1661'> +7.4999734e+01 </wgt>
<wgt id='1662'> +7.5020079e+01 </wgt>
<wgt id='1663'> +7.4986274e+01 </wgt>
<wgt id='1664'> +7.5031592e+01 </wgt>
<wgt id='1665'> +7.5023092e+01 </wgt>
<wgt id='1666'> +7.5029900e+01 </wgt>
<wgt id='1667'> +7.5016406e+01 </wgt>
<wgt id='1668'> +7.5022135e+01 </wgt>
<wgt id='1669'> +7.5029903e+01 </wgt>
<wgt id='1670'> +7.2316901e+01 </wgt>
<wgt id='1671'> +7.7258161e+01 </wgt>
<wgt id='1672'> +7.4992319e+01 </wgt>
<wgt id='1673'> +7.5031254e+01 </wgt>
<wgt id='1674'> +7.4340725e+01 </wgt>
<wgt id='1675'> +7.4991678e+01 </wgt>
<wgt id='1676'> +7.4605998e+01 </wgt>
<wgt id='1677'> +7.7562498e+01 </wgt>
<wgt id='1678'> +7.4593293e+01 </wgt>
<wgt id='1679'> +7.5003566e+01 </wgt>
<wgt id='1680'> +7.5244167e+01 </wgt>
<wgt id='1681'> +7.4849085e+01 </wgt>
<wgt id='1682'> +7.5083560e+01 </wgt>
<wgt id='1683'> +7.4931085e+01 </wgt>
<wgt id='1684'> +7.5110641e+01 </wgt>
<wgt id='1685'> +7.5012296e+01 </wgt>
<wgt id='1686'> +7.4886560e+01 </wgt>
<wgt id='1687'> +7.5157143e+01 </wgt>
<wgt id='1688'> +7.4963337e+01 </wgt>
<wgt id='1689'> +7.4547432e+01 </wgt>
<wgt id='1690'> +7.5140073e+01 </wgt>
<wgt id='1691'> +7.5088253e+01 </wgt>
<wgt id='1692'> +7.5213507e+01 </wgt>
<wgt id='1693'> +7.4950198e+01 </wgt>
<wgt id='1694'> +7.4893522e+01 </wgt>
<wgt id='1695'> +7.5020206e+01 </wgt>
<wgt id='1696'> +7.4750260e+01 </wgt>
<wgt id='1697'> +7.5021117e+01 </wgt>
<wgt id='1698'> +7.4931747e+01 </wgt>
<wgt id='1699'> +7.5099058e+01 </wgt>
<wgt id='1700'> +7.5080812e+01 </wgt>
<wgt id='1701'> +7.5137495e+01 </wgt>
<wgt id='1702'> +7.5029823e+01 </wgt>
<wgt id='1703'> +7.1821952e+01 </wgt>
<wgt id='1704'> +7.7829359e+01 </wgt>
<wgt id='1705'> +7.5028298e+01 </wgt>
<wgt id='1706'> +7.4673629e+01 </wgt>
<wgt id='1707'> +7.5236435e+01 </wgt>
<wgt id='1708'> +7.4867159e+01 </wgt>
<wgt id='1709'> +7.5439647e+01 </wgt>
<wgt id='1710'> +7.3451105e+01 </wgt>
<wgt id='1711'> +7.4957208e+01 </wgt>
<wgt id='1712'> +7.4886940e+01 </wgt>
<wgt id='1713'> +7.4545667e+01 </wgt>
<wgt id='1714'> +7.4700218e+01 </wgt>
<wgt id='1715'> +7.5269897e+01 </wgt>
<wgt id='1716'> +7.4756174e+01 </wgt>
<wgt id='1717'> +7.5158790e+01 </wgt>
<wgt id='1718'> +7.5255955e+01 </wgt>
<wgt id='1719'> +7.4707140e+01 </wgt>
<wgt id='1720'> +7.4571806e+01 </wgt>
<wgt id='1721'> +7.4622382e+01 </wgt>
<wgt id='1722'> +7.5943579e+01 </wgt>
<wgt id='1723'> +7.4957145e+01 </wgt>
<wgt id='1724'> +7.4925622e+01 </wgt>
<wgt id='1725'> +7.5480421e+01 </wgt>
<wgt id='1726'> +7.5388656e+01 </wgt>
<wgt id='1727'> +7.7091346e+01 </wgt>
<wgt id='1728'> +7.5062969e+01 </wgt>
<wgt id='1729'> +7.5179173e+01 </wgt>
<wgt id='1730'> +7.4840935e+01 </wgt>
<wgt id='1731'> +7.5141305e+01 </wgt>
<wgt id='1732'> +7.5183711e+01 </wgt>
<wgt id='1733'> +7.5228395e+01 </wgt>
<wgt id='1734'> +7.4925255e+01 </wgt>
<wgt id='1735'> +7.5066215e+01 </wgt>
<wgt id='1736'> +7.2316901e+01 </wgt>
<wgt id='1737'> +7.7258161e+01 </wgt>
<wgt id='1738'> +7.7082874e+01 </wgt>
<wgt id='1739'> +7.6940979e+01 </wgt>
<wgt id='1740'> +7.7224423e+01 </wgt>
<wgt id='1741'> +7.7323211e+01 </wgt>
<wgt id='1742'> +7.6843158e+01 </wgt>
<wgt id='1743'> +7.7238132e+01 </wgt>
<wgt id='1744'> +7.6928042e+01 </wgt>
<wgt id='1745'> +7.7399402e+01 </wgt>
<wgt id='1746'> +7.6775052e+01 </wgt>
<wgt id='1747'> +7.7205164e+01 </wgt>
<wgt id='1748'> +7.6964485e+01 </wgt>
<wgt id='1749'> +7.6888319e+01 </wgt>
<wgt id='1750'> +7.7295853e+01 </wgt>
<wgt id='1751'> +7.6702625e+01 </wgt>
<wgt id='1752'> +7.7468075e+01 </wgt>
<wgt id='1753'> +7.7062277e+01 </wgt>
<wgt id='1754'> +7.6971277e+01 </wgt>
<wgt id='1755'> +7.7377561e+01 </wgt>
<wgt id='1756'> +7.6770455e+01 </wgt>
<wgt id='1757'> +7.6741633e+01 </wgt>
<wgt id='1758'> +7.7408530e+01 </wgt>
<wgt id='1759'> +7.7505918e+01 </wgt>
<wgt id='1760'> +7.6558290e+01 </wgt>
<wgt id='1761'> +7.6707926e+01 </wgt>
<wgt id='1762'> +7.6998234e+01 </wgt>
<wgt id='1763'> +7.7373655e+01 </wgt>
<wgt id='1764'> +7.6918437e+01 </wgt>
<wgt id='1765'> +7.6985364e+01 </wgt>
<wgt id='1766'> +7.7272865e+01 </wgt>
<wgt id='1767'> +7.7082874e+01 </wgt>
<wgt id='1768'> +7.7059833e+01 </wgt>
<wgt id='1769'> +7.7065155e+01 </wgt>
<wgt id='1770'> +7.7046297e+01 </wgt>
<wgt id='1771'> +7.7070806e+01 </wgt>
<wgt id='1772'> +7.7406627e+01 </wgt>
<wgt id='1773'> +7.6248240e+01 </wgt>
<wgt id='1774'> +7.6669210e+01 </wgt>
<wgt id='1775'> +7.7467541e+01 </wgt>
<wgt id='1776'> +7.8199829e+01 </wgt>
<wgt id='1777'> +7.6045464e+01 </wgt>
<wgt id='1778'> +7.7119550e+01 </wgt>
<wgt id='1779'> +7.5935458e+01 </wgt>
<wgt id='1780'> +7.6109653e+01 </wgt>
<wgt id='1781'> +7.3090430e+01 </wgt>
<wgt id='1782'> +7.3008046e+01 </wgt>
<wgt id='1783'> +7.3159935e+01 </wgt>
<wgt id='1784'> +7.3220478e+01 </wgt>
<wgt id='1785'> +7.2948048e+01 </wgt>
<wgt id='1786'> +7.3303434e+01 </wgt>
<wgt id='1787'> +7.2865351e+01 </wgt>
<wgt id='1788'> +7.3530378e+01 </wgt>
<wgt id='1789'> +7.2649053e+01 </wgt>
<wgt id='1790'> +7.3082647e+01 </wgt>
<wgt id='1791'> +7.3090650e+01 </wgt>
<wgt id='1792'> +7.3307996e+01 </wgt>
<wgt id='1793'> +7.2861529e+01 </wgt>
<wgt id='1794'> +7.2830143e+01 </wgt>
<wgt id='1795'> +7.3337267e+01 </wgt>
<wgt id='1796'> +7.2921781e+01 </wgt>
<wgt id='1797'> +7.3168860e+01 </wgt>
<wgt id='1798'> +7.3061012e+01 </wgt>
<wgt id='1799'> +7.3088744e+01 </wgt>
<wgt id='1800'> +7.2925384e+01 </wgt>
<wgt id='1801'> +7.3237779e+01 </wgt>
<wgt id='1802'> +7.2246845e+01 </wgt>
<wgt id='1803'> +7.3796536e+01 </wgt>
<wgt id='1804'> +7.3127145e+01 </wgt>
<wgt id='1805'> +7.3019369e+01 </wgt>
<wgt id='1806'> +7.2803227e+01 </wgt>
<wgt id='1807'> +7.3127372e+01 </wgt>
<wgt id='1808'> +7.3078961e+01 </wgt>
<wgt id='1809'> +7.3195607e+01 </wgt>
<wgt id='1810'> +7.2935539e+01 </wgt>
<wgt id='1811'> +7.3001328e+01 </wgt>
<wgt id='1812'> +7.2712461e+01 </wgt>
<wgt id='1813'> +7.2976002e+01 </wgt>
<wgt id='1814'> +7.2856569e+01 </wgt>
<wgt id='1815'> +7.2791018e+01 </wgt>
<wgt id='1816'> +7.2834835e+01 </wgt>
<wgt id='1817'> +7.2574640e+01 </wgt>
<wgt id='1818'> +7.3478148e+01 </wgt>
<wgt id='1819'> +7.3788115e+01 </wgt>
<wgt id='1820'> +7.2018371e+01 </wgt>
<wgt id='1821'> +7.2607373e+01 </wgt>
<wgt id='1822'> +7.2616195e+01 </wgt>
<wgt id='1823'> +7.2316179e+01 </wgt>
<wgt id='1824'> +7.4030958e+01 </wgt>
<wgt id='1825'> +7.4022212e+01 </wgt>
<wgt id='1826'> +7.4013847e+01 </wgt>
<wgt id='1827'> +7.4004977e+01 </wgt>
<wgt id='1828'> +7.3996103e+01 </wgt>
<wgt id='1829'> +7.3987832e+01 </wgt>
<wgt id='1830'> +7.3979126e+01 </wgt>
<wgt id='1831'> +7.3970268e+01 </wgt>
<wgt id='1832'> +7.3961451e+01 </wgt>
<wgt id='1833'> +7.3952696e+01 </wgt>
<wgt id='1834'> +7.3944432e+01 </wgt>
<wgt id='1835'> +7.3935435e+01 </wgt>
<wgt id='1836'> +7.3927196e+01 </wgt>
<wgt id='1837'> +7.3918392e+01 </wgt>
<wgt id='1838'> +7.3909720e+01 </wgt>
<wgt id='1839'> +7.3901243e+01 </wgt>
<wgt id='1840'> +7.3892505e+01 </wgt>
<wgt id='1841'> +7.3884146e+01 </wgt>
<wgt id='1842'> +7.3875379e+01 </wgt>
<wgt id='1843'> +7.3866427e+01 </wgt>
<wgt id='1844'> +7.3858168e+01 </wgt>
<wgt id='1845'> +7.3849326e+01 </wgt>
<wgt id='1846'> +7.3841160e+01 </wgt>
<wgt id='1847'> +7.3832310e+01 </wgt>
<wgt id='1848'> +7.3823483e+01 </wgt>
<wgt id='1849'> +7.3815206e+01 </wgt>
<wgt id='1850'> +7.3806379e+01 </wgt>
<wgt id='1851'> +7.3798017e+01 </wgt>
<wgt id='1852'> +7.3789185e+01 </wgt>
<wgt id='1853'> +7.3780441e+01 </wgt>
<wgt id='1854'> +7.3772184e+01 </wgt>
<wgt id='1855'> +7.4287893e+01 </wgt>
<wgt id='1856'> +7.4072664e+01 </wgt>
<wgt id='1857'> +7.4771181e+01 </wgt>
<wgt id='1858'> +7.3380114e+01 </wgt>
<wgt id='1859'> +7.3979346e+01 </wgt>
<wgt id='1860'> +7.4757480e+01 </wgt>
<wgt id='1861'> +7.4164182e+01 </wgt>
<wgt id='1862'> +7.4456864e+01 </wgt>
<wgt id='1863'> +7.4462631e+01 </wgt>
<wgt id='1864'> +7.4235515e+01 </wgt>
<wgt id='1865'> +7.3981707e+01 </wgt>
<wgt id='1866'> +7.5752248e+01 </wgt>
<wgt id='1867'> +7.3254604e+01 </wgt>
<wgt id='1868'> +7.2925441e+01 </wgt>
<wgt id='1869'> +7.3104389e+01 </wgt>
<wgt id='1870'> +7.3798471e+01 </wgt>
<wgt id='1871'> +7.5138734e+01 </wgt>
<wgt id='1872'> +7.4198593e+01 </wgt>
<wgt id='1873'> +7.4187400e+01 </wgt>
<wgt id='1874'> +7.4374340e+01 </wgt>
<wgt id='1875'> +7.4856547e+01 </wgt>
<wgt id='1876'> +7.4085544e+01 </wgt>
<wgt id='1877'> +7.4344401e+01 </wgt>
<wgt id='1878'> +7.4217330e+01 </wgt>
<wgt id='1879'> +7.4056493e+01 </wgt>
<wgt id='1880'> +7.4196419e+01 </wgt>
<wgt id='1881'> +7.4114048e+01 </wgt>
<wgt id='1882'> +7.4436479e+01 </wgt>
<wgt id='1883'> +7.4432758e+01 </wgt>
<wgt id='1884'> +7.4259057e+01 </wgt>
<wgt id='1885'> +7.4224526e+01 </wgt>
<wgt id='1886'> +7.4497062e+01 </wgt>
<wgt id='1887'> +7.4265209e+01 </wgt>
<wgt id='1888'> +7.4310417e+01 </wgt>
<wgt id='1889'> +7.4243339e+01 </wgt>
<wgt id='1890'> +7.4338863e+01 </wgt>
<wgt id='1891'> +7.4298415e+01 </wgt>
<wgt id='1892'> +7.4361104e+01 </wgt>
<wgt id='1893'> +7.4267285e+01 </wgt>
<wgt id='1894'> +7.4208481e+01 </wgt>
<wgt id='1895'> +7.4215404e+01 </wgt>
<wgt id='1896'> +7.4204248e+01 </wgt>
<wgt id='1897'> +7.4235588e+01 </wgt>
<wgt id='1898'> +7.4356324e+01 </wgt>
<wgt id='1899'> +7.4284813e+01 </wgt>
<wgt id='1900'> +7.4247353e+01 </wgt>
<wgt id='1901'> +7.4260983e+01 </wgt>
<wgt id='1902'> +7.4211722e+01 </wgt>
<wgt id='1903'> +7.4347619e+01 </wgt>
<wgt id='1904'> +7.4230273e+01 </wgt>
<wgt id='1905'> +7.4323383e+01 </wgt>
<wgt id='1906'> +7.4295610e+01 </wgt>
<wgt id='1907'> +7.4292518e+01 </wgt>
<wgt id='1908'> +7.4309498e+01 </wgt>
<wgt id='1909'> +7.4287662e+01 </wgt>
<wgt id='1910'> +7.4302322e+01 </wgt>
<wgt id='1911'> +7.4274398e+01 </wgt>
<wgt id='1912'> +7.4283037e+01 </wgt>
<wgt id='1913'> +7.4314977e+01 </wgt>
<wgt id='1914'> +7.4299195e+01 </wgt>
<wgt id='1915'> +7.4306829e+01 </wgt>
<wgt id='1916'> +7.4308707e+01 </wgt>
<wgt id='1917'> +7.4280063e+01 </wgt>
<wgt id='1918'> +7.4284050e+01 </wgt>
<wgt id='1919'> +7.4296488e+01 </wgt>
<wgt id='1920'> +7.4277170e+01 </wgt>
<wgt id='1921'> +7.4285807e+01 </wgt>
<wgt id='1922'> +7.4275133e+01 </wgt>
<wgt id='1923'> +7.4311137e+01 </wgt>
<wgt id='1924'> +7.4284532e+01 </wgt>
<wgt id='1925'> +7.4269127e+01 </wgt>
<wgt id='1926'> +7.4344964e+01 </wgt>
<wgt id='1927'> +7.4306091e+01 </wgt>
<wgt id='1928'> +7.4250942e+01 </wgt>
<wgt id='1929'> +7.4295453e+01 </wgt>
<wgt id='1930'> +7.4290240e+01 </wgt>
<wgt id='1931'> +7.4331046e+01 </wgt>
<wgt id='1932'> +7.4302857e+01 </wgt>
<wgt id='1933'> +7.4325988e+01 </wgt>
<wgt id='1934'> +7.4280130e+01 </wgt>
<wgt id='1935'> +7.4283162e+01 </wgt>
<wgt id='1936'> +7.4323349e+01 </wgt>
<wgt id='1937'> +7.4315014e+01 </wgt>
<wgt id='1938'> +7.4267604e+01 </wgt>
<wgt id='1939'> +7.4254825e+01 </wgt>
<wgt id='1940'> +7.4286921e+01 </wgt>
<wgt id='1941'> +7.4340541e+01 </wgt>
<wgt id='1942'> +7.4238585e+01 </wgt>
<wgt id='1943'> +7.4253405e+01 </wgt>
<wgt id='1944'> +7.4252073e+01 </wgt>
<wgt id='1945'> +7.4285753e+01 </wgt>
<wgt id='1946'> +7.4255820e+01 </wgt>
<wgt id='1947'> +7.4263528e+01 </wgt>
<wgt id='1948'> +7.4285766e+01 </wgt>
<wgt id='1949'> +7.4249988e+01 </wgt>
<wgt id='1950'> +7.4296341e+01 </wgt>
<wgt id='1951'> +7.4289249e+01 </wgt>
<wgt id='1952'> +7.4295460e+01 </wgt>
<wgt id='1953'> +7.4280841e+01 </wgt>
<wgt id='1954'> +7.4287885e+01 </wgt>
<wgt id='1955'> +7.4295564e+01 </wgt>
<wgt id='1956'> +7.4287238e+01 </wgt>
<wgt id='1957'> +7.4291354e+01 </wgt>
<wgt id='1958'> +7.4288547e+01 </wgt>
<wgt id='1959'> +7.4288674e+01 </wgt>
<wgt id='1960'> +7.4289832e+01 </wgt>
<wgt id='1961'> +7.4288173e+01 </wgt>
<wgt id='1962'> +7.4292033e+01 </wgt>
</rwgt>
</event>
<event npLO=" -1 " npNLO=" 1 ">
 7      1 +1.5146096e+02 5.29370810e+01 7.54677110e-03 1.18107190e-01
        2 -1    0    0  502    0 +0.0000000000e+00 +0.0000000000e+00 +1.3261067000e+03 1.3261067000e+03 0.0000000000e+00 0.0000e+00 9.0000e+00
       21 -1    0    0  501  502 +0.0000000000e+00 +0.0000000000e+00 -3.1217144000e+01 3.1217144000e+01 0.0000000000e+00 0.0000e+00 9.0000e+00
       23  2    1    2    0    0 -5.9937523000e-01 -1.1421917000e+02 +1.0941230000e+03 1.1038926000e+03 9.1800217000e+01 0.0000e+00 0.0000e+00
       15  1    3    3    0    0 +2.2420137000e+01 -1.0600394000e+02 +1.0218111000e+03 1.0275410000e+03 1.7770000000e+00 0.0000e+00 9.0000e+00
      -15  1    3    3    0    0 -2.3019512000e+01 -8.2152308000e+00 +7.2311953000e+01 7.6351583000e+01 1.7770000000e+00 0.0000e+00 9.0000e+00
       22  1    1    2    0    0 +1.5975121000e+01 +2.4303350000e+01 +1.4193575000e+02 1.4488484000e+02 0.0000000000e+00 0.0000e+00 9.0000e+00
        2  1    1    2  501    0 -1.5375746000e+01 +8.9915818000e+01 +5.8830810000e+01 1.0854645000e+02 0.0000000000e+00 0.0000e+00 9.0000e+00
#aMCatNLO 1  0  0  6  2 0.19614706E+02 0.00000000E+00 -9  7  0 0.00000000E+00 0.00000000E+00 0.00000000E+00 0.00000000E+00 0.00000000E+00
<rwgt>
<wgt id='1001'> +1.5146000e+02 </wgt>
<wgt id='1002'> +1.5146000e+02 </wgt>
<wgt id='1003'> +1.4420000e+02 </wgt>
<wgt id='1004'> +1.5119000e+02 </wgt>
<wgt id='1005'> +1.5414000e+02 </wgt>
<wgt id='1006'> +1.5323000e+02 </wgt>
<wgt id='1007'> +1.4659000e+02 </wgt>
<wgt id='1008'> +1.5140000e+02 </wgt>
<wgt id='1009'> +1.5268000e+02 </wgt>
<wgt id='1010'> +1.4902000e+02 </wgt>
<wgt id='1011'> +1.5095000e+02 </wgt>
<wgt id='1012'> +1.5028000e+02 </wgt>
<wgt id='1013'> +1.5634000e+02 </wgt>
<wgt id='1014'> +1.5334000e+02 </wgt>
<wgt id='1015'> +1.5357000e+02 </wgt>
<wgt id='1016'> +1.5141000e+02 </wgt>
<wgt id='1017'> +1.5257000e+02 </wgt>
<wgt id='1018'> +1.4970000e+02 </wgt>
<wgt id='1019'> +1.4818000e+02 </wgt>
<wgt id='1020'> +1.4604000e+02 </wgt>
<wgt id='1021'> +1.5079000e+02 </wgt>
<wgt id='1022'> +1.4950000e+02 </wgt>
<wgt id='1023'> +1.5388000e+02 </wgt>
<wgt id='1024'> +1.5127000e+02 </wgt>
<wgt id='1025'> +1.5992000e+02 </wgt>
<wgt id='1026'> +1.5163000e+02 </wgt>
<wgt id='1027'> +1.5269000e+02 </wgt>
<wgt id='1028'> +1.5065000e+02 </wgt>
<wgt id='1029'> +1.4706000e+02 </wgt>
<wgt id='1030'> +1.5240000e+02 </wgt>
<wgt id='1031'> +1.4971000e+02 </wgt>
<wgt id='1032'> +1.5243000e+02 </wgt>
<wgt id='1033'> +1.5133000e+02 </wgt>
<wgt id='1034'> +1.5380000e+02 </wgt>
<wgt id='1035'> +1.5385000e+02 </wgt>
<wgt id='1036'> +1.5349000e+02 </wgt>
<wgt id='1037'> +1.5502000e+02 </wgt>
<wgt id='1038'> +1.5130000e+02 </wgt>
<wgt id='1039'> +1.4894000e+02 </wgt>
<wgt id='1040'> +1.5065000e+02 </wgt>
<wgt id='1041'> +1.4815000e+02 </wgt>
<wgt id='1042'> +1.5347000e+02 </wgt>
<wgt id='1043'> +1.5277000e+02 </wgt>
<wgt id='1044'> +1.5312000e+02 </wgt>
<wgt id='1045'> +1.5375000e+02 </wgt>
<wgt id='1046'> +1.5121000e+02 </wgt>
<wgt id='1047'> +1.5234000e+02 </wgt>
<wgt id='1048'> +1.5175000e+02 </wgt>
<wgt id='1049'> +1.4847000e+02 </wgt>
<wgt id='1050'> +1.4762000e+02 </wgt>
<wgt id='1051'> +1.5280000e+02 </wgt>
<wgt id='1052'> +1.5272000e+02 </wgt>
<wgt id='1053'> +1.5330000e+02 </wgt>
<wgt id='1054'> +1.5217000e+02 </wgt>
<wgt id='1055'> +1.5504000e+02 </wgt>
<wgt id='1056'> +1.5063000e+02 </wgt>
<wgt id='1057'> +1.5111000e+02 </wgt>
<wgt id='1058'> +1.4649000e+02 </wgt>
<wgt id='1059'> +1.5363000e+02 </wgt>
<wgt id='1060'> +1.5284000e+02 </wgt>
<wgt id='1061'> +1.5010000e+02 </wgt>
<wgt id='1062'> +1.5067000e+02 </wgt>
<wgt id='1063'> +1.5198000e+02 </wgt>
<wgt id='1064'> +1.5108000e+02 </wgt>
<wgt id='1065'> +1.5624000e+02 </wgt>
<wgt id='1066'> +1.4536000e+02 </wgt>
<wgt id='1067'> +1.5392000e+02 </wgt>
<wgt id='1068'> +1.5125000e+02 </wgt>
<wgt id='1069'> +1.5688000e+02 </wgt>
<wgt id='1070'> +1.5020000e+02 </wgt>
<wgt id='1071'> +1.4978000e+02 </wgt>
<wgt id='1072'> +1.4920000e+02 </wgt>
<wgt id='1073'> +1.5446000e+02 </wgt>
<wgt id='1074'> +1.5293000e+02 </wgt>
<wgt id='1075'> +1.4901000e+02 </wgt>
<wgt id='1076'> +1.5544000e+02 </wgt>
<wgt id='1077'> +1.5111000e+02 </wgt>
<wgt id='1078'> +1.5445000e+02 </wgt>
<wgt id='1079'> +1.5202000e+02 </wgt>
<wgt id='1080'> +1.5477000e+02 </wgt>
<wgt id='1081'> +1.5247000e+02 </wgt>
<wgt id='1082'> +1.5083000e+02 </wgt>
<wgt id='1083'> +1.5368000e+02 </wgt>
<wgt id='1084'> +1.5296000e+02 </wgt>
<wgt id='1085'> +1.4642000e+02 </wgt>
<wgt id='1086'> +1.5064000e+02 </wgt>
<wgt id='1087'> +1.4875000e+02 </wgt>
<wgt id='1088'> +1.4962000e+02 </wgt>
<wgt id='1089'> +1.5229000e+02 </wgt>
<wgt id='1090'> +1.5318000e+02 </wgt>
<wgt id='1091'> +1.4821000e+02 </wgt>
<wgt id='1092'> +1.5138000e+02 </wgt>
<wgt id='1093'> +1.4771000e+02 </wgt>
<wgt id='1094'> +1.5321000e+02 </wgt>
<wgt id='1095'> +1.4816000e+02 </wgt>
<wgt id='1096'> +1.5359000e+02 </wgt>
<wgt id='1097'> +1.4641000e+02 </wgt>
<wgt id='1098'> +1.5193000e+02 </wgt>
<wgt id='1099'> +1.4990000e+02 </wgt>
<wgt id='1100'> +1.5669000e+02 </wgt>
<wgt id='1101'> +1.5235000e+02 </wgt>
<wgt id='1102'> +1.4633000e+02 </wgt>
<wgt id='1103'> +1.4993000e+02 </wgt>
<wgt id='1104'> +1.5213000e+02 </wgt>
<wgt id='1105'> +1.5146096e+02 </wgt>
<wgt id='1106'> +6.8772796e+01 </wgt>
<wgt id='1107'> +8.4352857e+01 </wgt>
<wgt id='1108'> +7.7156670e+01 </wgt>
<wgt id='1109'> +7.0043667e+01 </wgt>
<wgt id='1110'> +8.5978290e+01 </wgt>
<wgt id='1111'> +7.2954530e+01 </wgt>
<wgt id='1112'> +6.6279247e+01 </wgt>
<wgt id='1113'> +8.1219313e+01 </wgt>
<wgt id='1114'> +7.7210780e+01 </wgt>
<wgt id='1115'> +7.6399773e+01 </wgt>
<wgt id='1116'> +7.7669399e+01 </wgt>
<wgt id='1117'> +7.6476957e+01 </wgt>
<wgt id='1118'> +7.6047498e+01 </wgt>
<wgt id='1119'> +7.8278294e+01 </wgt>
<wgt id='1120'> +7.6083788e+01 </wgt>
<wgt id='1121'> +7.8562767e+01 </wgt>
<wgt id='1122'> +7.8810016e+01 </wgt>
<wgt id='1123'> +7.7179016e+01 </wgt>
<wgt id='1124'> +7.2713715e+01 </wgt>
<wgt id='1125'> +7.7554409e+01 </wgt>
<wgt id='1126'> +7.6429407e+01 </wgt>
<wgt id='1127'> +7.6709110e+01 </wgt>
<wgt id='1128'> +7.8210394e+01 </wgt>
<wgt id='1129'> +7.8640592e+01 </wgt>
<wgt id='1130'> +7.7201162e+01 </wgt>
<wgt id='1131'> +7.6750858e+01 </wgt>
<wgt id='1132'> +7.8236713e+01 </wgt>
<wgt id='1133'> +7.7892567e+01 </wgt>
<wgt id='1134'> +7.7398048e+01 </wgt>
<wgt id='1135'> +7.7217153e+01 </wgt>
<wgt id='1136'> +7.8961040e+01 </wgt>
<wgt id='1137'> +7.8333677e+01 </wgt>
<wgt id='1138'> +7.7242214e+01 </wgt>
<wgt id='1139'> +7.8592116e+01 </wgt>
<wgt id='1140'> +8.0236744e+01 </wgt>
<wgt id='1141'> +7.4448549e+01 </wgt>
<wgt id='1142'> +7.7427277e+01 </wgt>
<wgt id='1143'> +7.6795725e+01 </wgt>
<wgt id='1144'> +7.5565780e+01 </wgt>
<wgt id='1145'> +7.6258956e+01 </wgt>
<wgt id='1146'> +7.6492279e+01 </wgt>
<wgt id='1147'> +7.7561351e+01 </wgt>
<wgt id='1148'> +7.5648902e+01 </wgt>
<wgt id='1149'> +7.8489074e+01 </wgt>
<wgt id='1150'> +7.8385584e+01 </wgt>
<wgt id='1151'> +7.8893956e+01 </wgt>
<wgt id='1152'> +7.7728540e+01 </wgt>
<wgt id='1153'> +7.5884527e+01 </wgt>
<wgt id='1154'> +7.7725869e+01 </wgt>
<wgt id='1155'> +7.7641860e+01 </wgt>
<wgt id='1156'> +7.6060657e+01 </wgt>
<wgt id='1157'> +7.5764044e+01 </wgt>
<wgt id='1158'> +7.5588151e+01 </wgt>
<wgt id='1159'> +7.8149218e+01 </wgt>
<wgt id='1160'> +7.7315006e+01 </wgt>
<wgt id='1161'> +7.6031681e+01 </wgt>
<wgt id='1162'> +7.8121666e+01 </wgt>
<wgt id='1163'> +7.7388566e+01 </wgt>
<wgt id='1164'> +7.6656837e+01 </wgt>
<wgt id='1165'> +7.6638529e+01 </wgt>
<wgt id='1166'> +7.8455866e+01 </wgt>
<wgt id='1167'> +7.7419695e+01 </wgt>
<wgt id='1168'> +7.7274320e+01 </wgt>
<wgt id='1169'> +7.9278661e+01 </wgt>
<wgt id='1170'> +7.6464409e+01 </wgt>
<wgt id='1171'> +7.8170443e+01 </wgt>
<wgt id='1172'> +7.8670289e+01 </wgt>
<wgt id='1173'> +7.8885885e+01 </wgt>
<wgt id='1174'> +7.8977791e+01 </wgt>
<wgt id='1175'> +7.5083542e+01 </wgt>
<wgt id='1176'> +7.7149596e+01 </wgt>
<wgt id='1177'> +7.8406104e+01 </wgt>
<wgt id='1178'> +7.8198492e+01 </wgt>
<wgt id='1179'> +7.8108869e+01 </wgt>
<wgt id='1180'> +7.7714761e+01 </wgt>
<wgt id='1181'> +7.6470251e+01 </wgt>
<wgt id='1182'> +7.6486097e+01 </wgt>
<wgt id='1183'> +7.6724620e+01 </wgt>
<wgt id='1184'> +7.5386888e+01 </wgt>
<wgt id='1185'> +7.8141801e+01 </wgt>
<wgt id='1186'> +7.5790071e+01 </wgt>
<wgt id='1187'> +7.7714025e+01 </wgt>
<wgt id='1188'> +7.6884960e+01 </wgt>
<wgt id='1189'> +7.6313180e+01 </wgt>
<wgt id='1190'> +7.7569932e+01 </wgt>
<wgt id='1191'> +7.5896619e+01 </wgt>
<wgt id='1192'> +7.8222027e+01 </wgt>
<wgt id='1193'> +7.7589491e+01 </wgt>
<wgt id='1194'> +7.4993076e+01 </wgt>
<wgt id='1195'> +7.6779957e+01 </wgt>
<wgt id='1196'> +7.7201162e+01 </wgt>
<wgt id='1197'> +7.4595168e+01 </wgt>
<wgt id='1198'> +7.7809683e+01 </wgt>
<wgt id='1199'> +7.8687862e+01 </wgt>
<wgt id='1200'> +7.4508639e+01 </wgt>
<wgt id='1201'> +7.8813709e+01 </wgt>
<wgt id='1202'> +7.5049565e+01 </wgt>
<wgt id='1203'> +7.5111457e+01 </wgt>
<wgt id='1204'> +7.7120762e+01 </wgt>
<wgt id='1205'> +7.8309058e+01 </wgt>
<wgt id='1206'> +7.7892784e+01 </wgt>
<wgt id='1207'> +7.7496413e+01 </wgt>
<wgt id='1208'> +7.6133638e+01 </wgt>
<wgt id='1209'> +7.6753623e+01 </wgt>
<wgt id='1210'> +7.8398637e+01 </wgt>
<wgt id='1211'> +7.5637964e+01 </wgt>
<wgt id='1212'> +7.7161756e+01 </wgt>
<wgt id='1213'> +7.9124969e+01 </wgt>
<wgt id='1214'> +7.9495242e+01 </wgt>
<wgt id='1215'> +7.6131061e+01 </wgt>
<wgt id='1216'> +7.6651849e+01 </wgt>
<wgt id='1217'> +7.6870939e+01 </wgt>
<wgt id='1218'> +7.6334897e+01 </wgt>
<wgt id='1219'> +7.6906195e+01 </wgt>
<wgt id='1220'> +7.6503919e+01 </wgt>
<wgt id='1221'> +7.6860215e+01 </wgt>
<wgt id='1222'> +7.6868400e+01 </wgt>
<wgt id='1223'> +7.6694643e+01 </wgt>
<wgt id='1224'> +7.6500557e+01 </wgt>
<wgt id='1225'> +7.6490404e+01 </wgt>
<wgt id='1226'> +7.6692660e+01 </wgt>
<wgt id='1227'> +7.6826717e+01 </wgt>
<wgt id='1228'> +7.6740988e+01 </wgt>
<wgt id='1229'> +7.6227110e+01 </wgt>
<wgt id='1230'> +7.6839926e+01 </wgt>
<wgt id='1231'> +7.6834499e+01 </wgt>
<wgt id='1232'> +7.6504661e+01 </wgt>
<wgt id='1233'> +7.6764728e+01 </wgt>
<wgt id='1234'> +7.6538734e+01 </wgt>
<wgt id='1235'> +7.6545865e+01 </wgt>
<wgt id='1236'> +7.6517276e+01 </wgt>
<wgt id='1237'> +7.6718209e+01 </wgt>
<wgt id='1238'> +7.6779029e+01 </wgt>
<wgt id='1239'> +7.6899835e+01 </wgt>
<wgt id='1240'> +7.6626343e+01 </wgt>
<wgt id='1241'> +7.6475931e+01 </wgt>
<wgt id='1242'> +7.6642604e+01 </wgt>
<wgt id='1243'> +7.6550734e+01 </wgt>
<wgt id='1244'> +7.6839672e+01 </wgt>
<wgt id='1245'> +7.6882911e+01 </wgt>
<wgt id='1246'> +7.5896880e+01 </wgt>
<wgt id='1247'> +7.6332033e+01 </wgt>
<wgt id='1248'> +7.6841631e+01 </wgt>
<wgt id='1249'> +7.6753988e+01 </wgt>
<wgt id='1250'> +7.6678298e+01 </wgt>
<wgt id='1251'> +7.6829220e+01 </wgt>
<wgt id='1252'> +7.6723812e+01 </wgt>
<wgt id='1253'> +7.6403457e+01 </wgt>
<wgt id='1254'> +7.6716642e+01 </wgt>
<wgt id='1255'> +7.6642466e+01 </wgt>
<wgt id='1256'> +7.6624785e+01 </wgt>
<wgt id='1257'> +7.6744670e+01 </wgt>
<wgt id='1258'> +7.6753107e+01 </wgt>
<wgt id='1259'> +7.6533875e+01 </wgt>
<wgt id='1260'> +7.6685774e+01 </wgt>
<wgt id='1261'> +7.6703455e+01 </wgt>
<wgt id='1262'> +7.6557420e+01 </wgt>
<wgt id='1263'> +7.6603746e+01 </wgt>
<wgt id='1264'> +7.6743183e+01 </wgt>
<wgt id='1265'> +7.6602253e+01 </wgt>
<wgt id='1266'> +7.6606365e+01 </wgt>
<wgt id='1267'> +7.6758675e+01 </wgt>
<wgt id='1268'> +7.6786570e+01 </wgt>
<wgt id='1269'> +7.6626493e+01 </wgt>
<wgt id='1270'> +7.6677616e+01 </wgt>
<wgt id='1271'> +7.6564001e+01 </wgt>
<wgt id='1272'> +7.6681799e+01 </wgt>
<wgt id='1273'> +7.6717323e+01 </wgt>
<wgt id='1274'> +7.6683663e+01 </wgt>
<wgt id='1275'> +7.6644057e+01 </wgt>
<wgt id='1276'> +7.6633893e+01 </wgt>
<wgt id='1277'> +7.6614099e+01 </wgt>
<wgt id='1278'> +7.6543021e+01 </wgt>
<wgt id='1279'> +7.6651214e+01 </wgt>
<wgt id='1280'> +7.6584874e+01 </wgt>
<wgt id='1281'> +7.6596548e+01 </wgt>
<wgt id='1282'> +7.6610489e+01 </wgt>
<wgt id='1283'> +7.6587750e+01 </wgt>
<wgt id='1284'> +7.6711511e+01 </wgt>
<wgt id='1285'> +7.6642973e+01 </wgt>
<wgt id='1286'> +7.6489288e+01 </wgt>
<wgt id='1287'> +7.6594821e+01 </wgt>
<wgt id='1288'> +7.6586474e+01 </wgt>
<wgt id='1289'> +7.6574670e+01 </wgt>
<wgt id='1290'> +7.6735824e+01 </wgt>
<wgt id='1291'> +7.6687355e+01 </wgt>
<wgt id='1292'> +7.6640690e+01 </wgt>
<wgt id='1293'> +7.6562686e+01 </wgt>
<wgt id='1294'> +7.6702294e+01 </wgt>
<wgt id='1295'> +7.6686746e+01 </wgt>
<wgt id='1296'> +7.6625546e+01 </wgt>
<wgt id='1297'> +7.6667137e+01 </wgt>
<wgt id='1298'> +7.6691177e+01 </wgt>
<wgt id='1299'> +7.6709640e+01 </wgt>
<wgt id='1300'> +7.6677968e+01 </wgt>
<wgt id='1301'> +7.6702712e+01 </wgt>
<wgt id='1302'> +7.6603667e+01 </wgt>
<wgt id='1303'> +7.6652955e+01 </wgt>
<wgt id='1304'> +7.6640206e+01 </wgt>
<wgt id='1305'> +7.6669114e+01 </wgt>
<wgt id='1306'> +7.6692041e+01 </wgt>
<wgt id='1307'> +7.6649132e+01 </wgt>
<wgt id='1308'> +7.6668217e+01 </wgt>
<wgt id='1309'> +7.6640635e+01 </wgt>
<wgt id='1310'> +7.6644667e+01 </wgt>
<wgt id='1311'> +7.6653098e+01 </wgt>
<wgt id='1312'> +7.6616164e+01 </wgt>
<wgt id='1313'> +7.6592714e+01 </wgt>
<wgt id='1314'> +7.6682585e+01 </wgt>
<wgt id='1315'> +7.6695659e+01 </wgt>
<wgt id='1316'> +7.6708829e+01 </wgt>
<wgt id='1317'> +7.5445986e+01 </wgt>
<wgt id='1318'> +7.8021273e+01 </wgt>
<wgt id='1319'> +8.2522668e+01 </wgt>
<wgt id='1320'> +7.7226603e+01 </wgt>
<wgt id='1321'> +7.7406167e+01 </wgt>
<wgt id='1322'> +7.7219769e+01 </wgt>
<wgt id='1323'> +7.8074036e+01 </wgt>
<wgt id='1324'> +7.7262581e+01 </wgt>
<wgt id='1325'> +7.6951262e+01 </wgt>
<wgt id='1326'> +7.7016226e+01 </wgt>
<wgt id='1327'> +7.7166419e+01 </wgt>
<wgt id='1328'> +7.7488079e+01 </wgt>
<wgt id='1329'> +7.6032016e+01 </wgt>
<wgt id='1330'> +7.8262873e+01 </wgt>
<wgt id='1331'> +7.8462410e+01 </wgt>
<wgt id='1332'> +7.6372712e+01 </wgt>
<wgt id='1333'> +7.5256686e+01 </wgt>
<wgt id='1334'> +7.8353670e+01 </wgt>
<wgt id='1335'> +7.7250585e+01 </wgt>
<wgt id='1336'> +7.7134375e+01 </wgt>
<wgt id='1337'> +7.7562355e+01 </wgt>
<wgt id='1338'> +7.6829084e+01 </wgt>
<wgt id='1339'> +7.7980984e+01 </wgt>
<wgt id='1340'> +7.6361824e+01 </wgt>
<wgt id='1341'> +7.6936651e+01 </wgt>
<wgt id='1342'> +7.7567816e+01 </wgt>
<wgt id='1343'> +7.6654825e+01 </wgt>
<wgt id='1344'> +7.7841431e+01 </wgt>
<wgt id='1345'> +7.6041317e+01 </wgt>
<wgt id='1346'> +7.8332217e+01 </wgt>
<wgt id='1347'> +7.7249413e+01 </wgt>
<wgt id='1348'> +7.7172270e+01 </wgt>
<wgt id='1349'> +7.6745928e+01 </wgt>
<wgt id='1350'> +7.7390762e+01 </wgt>
<wgt id='1351'> +7.7273636e+01 </wgt>
<wgt id='1352'> +7.7164419e+01 </wgt>
<wgt id='1353'> +7.7434935e+01 </wgt>
<wgt id='1354'> +7.6755402e+01 </wgt>
<wgt id='1355'> +7.7942824e+01 </wgt>
<wgt id='1356'> +7.6489255e+01 </wgt>
<wgt id='1357'> +7.7572194e+01 </wgt>
<wgt id='1358'> +7.6676249e+01 </wgt>
<wgt id='1359'> +7.6842271e+01 </wgt>
<wgt id='1360'> +7.7371785e+01 </wgt>
<wgt id='1361'> +7.7808948e+01 </wgt>
<wgt id='1362'> +7.6632582e+01 </wgt>
<wgt id='1363'> +7.7248900e+01 </wgt>
<wgt id='1364'> +7.6963810e+01 </wgt>
<wgt id='1365'> +7.7089668e+01 </wgt>
<wgt id='1366'> +7.6938194e+01 </wgt>
<wgt id='1367'> +7.6984132e+01 </wgt>
<wgt id='1368'> +7.7984000e+01 </wgt>
<wgt id='1369'> +7.7795429e+01 </wgt>
<wgt id='1370'> +7.6740458e+01 </wgt>
<wgt id='1371'> +7.7613885e+01 </wgt>
<wgt id='1372'> +7.8034568e+01 </wgt>
<wgt id='1373'> +7.6000233e+01 </wgt>
<wgt id='1374'> +7.7192539e+01 </wgt>
<wgt id='1375'> +7.6958435e+01 </wgt>
<wgt id='1376'> +7.7326390e+01 </wgt>
<wgt id='1377'> +7.6199232e+01 </wgt>
<wgt id='1378'> +7.8054867e+01 </wgt>
<wgt id='1379'> +7.5937167e+01 </wgt>
<wgt id='1380'> +7.5206055e+01 </wgt>
<wgt id='1381'> +7.6476754e+01 </wgt>
<wgt id='1382'> +7.7356197e+01 </wgt>
<wgt id='1383'> +7.5631942e+01 </wgt>
<wgt id='1384'> +7.5553064e+01 </wgt>
<wgt id='1385'> +8.9581336e+01 </wgt>
<wgt id='1386'> +8.9652095e+01 </wgt>
<wgt id='1387'> +8.9498474e+01 </wgt>
<wgt id='1388'> +8.9302342e+01 </wgt>
<wgt id='1389'> +9.0052318e+01 </wgt>
<wgt id='1390'> +8.9525704e+01 </wgt>
<wgt id='1391'> +8.9641486e+01 </wgt>
<wgt id='1392'> +9.0149744e+01 </wgt>
<wgt id='1393'> +8.9182987e+01 </wgt>
<wgt id='1394'> +8.9655443e+01 </wgt>
<wgt id='1395'> +8.9478266e+01 </wgt>
<wgt id='1396'> +8.9426714e+01 </wgt>
<wgt id='1397'> +8.9657538e+01 </wgt>
<wgt id='1398'> +8.9113431e+01 </wgt>
<wgt id='1399'> +8.9923552e+01 </wgt>
<wgt id='1400'> +8.9931679e+01 </wgt>
<wgt id='1401'> +8.9300245e+01 </wgt>
<wgt id='1402'> +8.9928373e+01 </wgt>
<wgt id='1403'> +8.9420947e+01 </wgt>
<wgt id='1404'> +8.8252337e+01 </wgt>
<wgt id='1405'> +9.0219021e+01 </wgt>
<wgt id='1406'> +8.9599177e+01 </wgt>
<wgt id='1407'> +8.9536132e+01 </wgt>
<wgt id='1408'> +8.9596246e+01 </wgt>
<wgt id='1409'> +8.9539266e+01 </wgt>
<wgt id='1410'> +8.9883816e+01 </wgt>
<wgt id='1411'> +8.8803915e+01 </wgt>
<wgt id='1412'> +9.0179681e+01 </wgt>
<wgt id='1413'> +8.8770115e+01 </wgt>
<wgt id='1414'> +8.9519207e+01 </wgt>
<wgt id='1415'> +8.9503193e+01 </wgt>
<wgt id='1416'> +8.9650549e+01 </wgt>
<wgt id='1417'> +8.9568298e+01 </wgt>
<wgt id='1418'> +8.9493174e+01 </wgt>
<wgt id='1419'> +8.9714519e+01 </wgt>
<wgt id='1420'> +8.9377298e+01 </wgt>
<wgt id='1421'> +8.9519186e+01 </wgt>
<wgt id='1422'> +8.9725467e+01 </wgt>
<wgt id='1423'> +8.9421480e+01 </wgt>
<wgt id='1424'> +8.9832992e+01 </wgt>
<wgt id='1425'> +8.9049686e+01 </wgt>
<wgt id='1426'> +8.9614728e+01 </wgt>
<wgt id='1427'> +8.9537714e+01 </wgt>
<wgt id='1428'> +8.9731259e+01 </wgt>
<wgt id='1429'> +8.9332376e+01 </wgt>
<wgt id='1430'> +8.9626755e+01 </wgt>
<wgt id='1431'> +8.9544594e+01 </wgt>
<wgt id='1432'> +8.9567109e+01 </wgt>
<wgt id='1433'> +8.9600335e+01 </wgt>
<wgt id='1434'> +8.9576770e+01 </wgt>
<wgt id='1435'> +8.9807003e+01 </wgt>
<wgt id='1436'> +7.5800811e+01 </wgt>
<wgt id='1437'> +7.5791047e+01 </wgt>
<wgt id='1438'> +7.5800235e+01 </wgt>
<wgt id='1439'> +7.5798649e+01 </wgt>
<wgt id='1440'> +7.5916164e+01 </wgt>
<wgt id='1441'> +7.5869113e+01 </wgt>
<wgt id='1442'> +7.5701252e+01 </wgt>
<wgt id='1443'> +7.5999815e+01 </wgt>
<wgt id='1444'> +7.5646732e+01 </wgt>
<wgt id='1445'> +7.5494527e+01 </wgt>
<wgt id='1446'> +7.5936534e+01 </wgt>
<wgt id='1447'> +7.5914143e+01 </wgt>
<wgt id='1448'> +7.5778412e+01 </wgt>
<wgt id='1449'> +7.5911542e+01 </wgt>
<wgt id='1450'> +7.5829435e+01 </wgt>
<wgt id='1451'> +7.5947692e+01 </wgt>
<wgt id='1452'> +7.5608806e+01 </wgt>
<wgt id='1453'> +7.5707968e+01 </wgt>
<wgt id='1454'> +7.5856956e+01 </wgt>
<wgt id='1455'> +7.5707123e+01 </wgt>
<wgt id='1456'> +7.5616638e+01 </wgt>
<wgt id='1457'> +7.5809653e+01 </wgt>
<wgt id='1458'> +7.5680713e+01 </wgt>
<wgt id='1459'> +7.5644916e+01 </wgt>
<wgt id='1460'> +7.5967147e+01 </wgt>
<wgt id='1461'> +7.6027042e+01 </wgt>
<wgt id='1462'> +7.5948583e+01 </wgt>
<wgt id='1463'> +7.5663999e+01 </wgt>
<wgt id='1464'> +7.6039001e+01 </wgt>
<wgt id='1465'> +7.8535978e+01 </wgt>
<wgt id='1466'> +7.6209695e+01 </wgt>
<wgt id='1467'> +7.5968631e+01 </wgt>
<wgt id='1468'> +7.6180988e+01 </wgt>
<wgt id='1469'> +7.6365362e+01 </wgt>
<wgt id='1470'> +7.6051584e+01 </wgt>
<wgt id='1471'> +7.6267732e+01 </wgt>
<wgt id='1472'> +7.5810673e+01 </wgt>
<wgt id='1473'> +7.6833962e+01 </wgt>
<wgt id='1474'> +7.6962771e+01 </wgt>
<wgt id='1475'> +7.5766136e+01 </wgt>
<wgt id='1476'> +7.6376243e+01 </wgt>
<wgt id='1477'> +7.6191041e+01 </wgt>
<wgt id='1478'> +7.5804264e+01 </wgt>
<wgt id='1479'> +7.6601810e+01 </wgt>
<wgt id='1480'> +7.6096553e+01 </wgt>
<wgt id='1481'> +7.6137837e+01 </wgt>
<wgt id='1482'> +7.6126005e+01 </wgt>
<wgt id='1483'> +7.5991150e+01 </wgt>
<wgt id='1484'> +7.6533608e+01 </wgt>
<wgt id='1485'> +7.6059833e+01 </wgt>
<wgt id='1486'> +7.6280634e+01 </wgt>
<wgt id='1487'> +7.6308789e+01 </wgt>
<wgt id='1488'> +7.5944030e+01 </wgt>
<wgt id='1489'> +7.6573020e+01 </wgt>
<wgt id='1490'> +7.6069842e+01 </wgt>
<wgt id='1491'> +7.6557203e+01 </wgt>
<wgt id='1492'> +7.6219406e+01 </wgt>
<wgt id='1493'> +7.5998504e+01 </wgt>
<wgt id='1494'> +7.6529410e+01 </wgt>
<wgt id='1495'> +7.6160111e+01 </wgt>
<wgt id='1496'> +7.6012195e+01 </wgt>
<wgt id='1497'> +7.6228093e+01 </wgt>
<wgt id='1498'> +7.6152928e+01 </wgt>
<wgt id='1499'> +7.6076832e+01 </wgt>
<wgt id='1500'> +7.6228496e+01 </wgt>
<wgt id='1501'> +7.6427536e+01 </wgt>
<wgt id='1502'> +7.6116132e+01 </wgt>
<wgt id='1503'> +7.6147347e+01 </wgt>
<wgt id='1504'> +7.6191632e+01 </wgt>
<wgt id='1505'> +7.6281412e+01 </wgt>
<wgt id='1506'> +7.6305482e+01 </wgt>
<wgt id='1507'> +7.6321916e+01 </wgt>
<wgt id='1508'> +7.6337229e+01 </wgt>
<wgt id='1509'> +7.6098028e+01 </wgt>
<wgt id='1510'> +7.6295977e+01 </wgt>
<wgt id='1511'> +7.6332205e+01 </wgt>
<wgt id='1512'> +7.6200384e+01 </wgt>
<wgt id='1513'> +7.6136851e+01 </wgt>
<wgt id='1514'> +7.6012775e+01 </wgt>
<wgt id='1515'> +7.6225908e+01 </wgt>
<wgt id='1516'> +7.6191440e+01 </wgt>
<wgt id='1517'> +7.6121615e+01 </wgt>
<wgt id='1518'> +7.6235612e+01 </wgt>
<wgt id='1519'> +7.6054017e+01 </wgt>
<wgt id='1520'> +7.6208414e+01 </wgt>
<wgt id='1521'> +7.6151729e+01 </wgt>
<wgt id='1522'> +7.6166375e+01 </wgt>
<wgt id='1523'> +7.6185346e+01 </wgt>
<wgt id='1524'> +7.6192218e+01 </wgt>
<wgt id='1525'> +7.6114774e+01 </wgt>
<wgt id='1526'> +7.6195920e+01 </wgt>
<wgt id='1527'> +7.6201777e+01 </wgt>
<wgt id='1528'> +7.6125908e+01 </wgt>
<wgt id='1529'> +7.6224360e+01 </wgt>
<wgt id='1530'> +7.6132373e+01 </wgt>
<wgt id='1531'> +7.6223386e+01 </wgt>
<wgt id='1532'> +7.6200475e+01 </wgt>
<wgt id='1533'> +7.6191591e+01 </wgt>
<wgt id='1534'> +7.6241261e+01 </wgt>
<wgt id='1535'> +7.6210042e+01 </wgt>
<wgt id='1536'> +7.6250146e+01 </wgt>
<wgt id='1537'> +7.6208519e+01 </wgt>
<wgt id='1538'> +7.6160851e+01 </wgt>
<wgt id='1539'> +7.6180378e+01 </wgt>
<wgt id='1540'> +7.6248831e+01 </wgt>
<wgt id='1541'> +7.6206027e+01 </wgt>
<wgt id='1542'> +7.6202291e+01 </wgt>
<wgt id='1543'> +7.6199036e+01 </wgt>
<wgt id='1544'> +7.6231668e+01 </wgt>
<wgt id='1545'> +7.6210174e+01 </wgt>
<wgt id='1546'> +7.6218984e+01 </wgt>
<wgt id='1547'> +7.6230225e+01 </wgt>
<wgt id='1548'> +7.6190697e+01 </wgt>
<wgt id='1549'> +7.6256956e+01 </wgt>
<wgt id='1550'> +7.6202861e+01 </wgt>
<wgt id='1551'> +7.6237229e+01 </wgt>
<wgt id='1552'> +7.6224516e+01 </wgt>
<wgt id='1553'> +7.6238289e+01 </wgt>
<wgt id='1554'> +7.6220654e+01 </wgt>
<wgt id='1555'> +7.6192736e+01 </wgt>
<wgt id='1556'> +7.6217436e+01 </wgt>
<wgt id='1557'> +7.6187140e+01 </wgt>
<wgt id='1558'> +7.6204868e+01 </wgt>
<wgt id='1559'> +7.6174162e+01 </wgt>
<wgt id='1560'> +7.6204954e+01 </wgt>
<wgt id='1561'> +7.6235760e+01 </wgt>
<wgt id='1562'> +7.6170557e+01 </wgt>
<wgt id='1563'> +7.6210314e+01 </wgt>
<wgt id='1564'> +7.6205246e+01 </wgt>
<wgt id='1565'> +7.6231453e+01 </wgt>
<wgt id='1566'> +7.6225624e+01 </wgt>
<wgt id='1567'> +7.5291568e+01 </wgt>
<wgt id='1568'> +7.6967384e+01 </wgt>
<wgt id='1569'> +7.5912383e+01 </wgt>
<wgt id='1570'> +7.5957418e+01 </wgt>
<wgt id='1571'> +7.6000049e+01 </wgt>
<wgt id='1572'> +7.5606076e+01 </wgt>
<wgt id='1573'> +7.5871419e+01 </wgt>
<wgt id='1574'> +7.5967905e+01 </wgt>
<wgt id='1575'> +7.5992071e+01 </wgt>
<wgt id='1576'> +7.6345462e+01 </wgt>
<wgt id='1577'> +7.6186698e+01 </wgt>
<wgt id='1578'> +7.5934098e+01 </wgt>
<wgt id='1579'> +7.5967727e+01 </wgt>
<wgt id='1580'> +7.6326825e+01 </wgt>
<wgt id='1581'> +7.5251876e+01 </wgt>
<wgt id='1582'> +7.5604452e+01 </wgt>
<wgt id='1583'> +7.5445146e+01 </wgt>
<wgt id='1584'> +7.5775026e+01 </wgt>
<wgt id='1585'> +7.5971543e+01 </wgt>
<wgt id='1586'> +7.5954999e+01 </wgt>
<wgt id='1587'> +7.5872055e+01 </wgt>
<wgt id='1588'> +7.5618717e+01 </wgt>
<wgt id='1589'> +7.6101431e+01 </wgt>
<wgt id='1590'> +7.6129557e+01 </wgt>
<wgt id='1591'> +7.5664912e+01 </wgt>
<wgt id='1592'> +7.6266073e+01 </wgt>
<wgt id='1593'> +7.6239694e+01 </wgt>
<wgt id='1594'> +7.5759352e+01 </wgt>
<wgt id='1595'> +7.5823865e+01 </wgt>
<wgt id='1596'> +7.6007049e+01 </wgt>
<wgt id='1597'> +7.5834600e+01 </wgt>
<wgt id='1598'> +7.5738433e+01 </wgt>
<wgt id='1599'> +7.5878638e+01 </wgt>
<wgt id='1600'> +7.6128474e+01 </wgt>
<wgt id='1601'> +7.6058522e+01 </wgt>
<wgt id='1602'> +7.6130182e+01 </wgt>
<wgt id='1603'> +7.6080947e+01 </wgt>
<wgt id='1604'> +7.5681586e+01 </wgt>
<wgt id='1605'> +7.6019611e+01 </wgt>
<wgt id='1606'> +7.5916700e+01 </wgt>
<wgt id='1607'> +7.6032572e+01 </wgt>
<wgt id='1608'> +7.5763492e+01 </wgt>
<wgt id='1609'> +7.5829072e+01 </wgt>
<wgt id='1610'> +7.5893593e+01 </wgt>
<wgt id='1611'> +7.5941322e+01 </wgt>
<wgt id='1612'> +7.5746035e+01 </wgt>
<wgt id='1613'> +7.5982511e+01 </wgt>
<wgt id='1614'> +7.5914404e+01 </wgt>
<wgt id='1615'> +7.5899036e+01 </wgt>
<wgt id='1616'> +7.5743098e+01 </wgt>
<wgt id='1617'> +7.6008512e+01 </wgt>
<wgt id='1618'> +7.5800405e+01 </wgt>
<wgt id='1619'> +7.6024098e+01 </wgt>
<wgt id='1620'> +7.6017691e+01 </wgt>
<wgt id='1621'> +7.5978218e+01 </wgt>
<wgt id='1622'> +7.5835271e+01 </wgt>
<wgt id='1623'> +7.5851747e+01 </wgt>
<wgt id='1624'> +7.5898169e+01 </wgt>
<wgt id='1625'> +7.5919317e+01 </wgt>
<wgt id='1626'> +7.5889783e+01 </wgt>
<wgt id='1627'> +7.5768680e+01 </wgt>
<wgt id='1628'> +7.5909573e+01 </wgt>
<wgt id='1629'> +7.5921766e+01 </wgt>
<wgt id='1630'> +7.5867502e+01 </wgt>
<wgt id='1631'> +7.5934443e+01 </wgt>
<wgt id='1632'> +7.5883426e+01 </wgt>
<wgt id='1633'> +7.5915471e+01 </wgt>
<wgt id='1634'> +7.5915357e+01 </wgt>
<wgt id='1635'> +7.5921274e+01 </wgt>
<wgt id='1636'> +7.5940867e+01 </wgt>
<wgt id='1637'> +7.5896122e+01 </wgt>
<wgt id='1638'> +7.5929414e+01 </wgt>
<wgt id='1639'> +7.5891684e+01 </wgt>
<wgt id='1640'> +7.5933604e+01 </wgt>
<wgt id='1641'> +7.5990289e+01 </wgt>
<wgt id='1642'> +7.5858448e+01 </wgt>
<wgt id='1643'> +7.5918737e+01 </wgt>
<wgt id='1644'> +7.5903538e+01 </wgt>
<wgt id='1645'> +7.5943025e+01 </wgt>
<wgt id='1646'> +7.5945421e+01 </wgt>
<wgt id='1647'> +7.5924556e+01 </wgt>
<wgt id='1648'> +7.5913717e+01 </wgt>
<wgt id='1649'> +7.5954062e+01 </wgt>
<wgt id='1650'> +7.5946019e+01 </wgt>
<wgt id='1651'> +7.5918012e+01 </wgt>
<wgt id='1652'> +7.5878908e+01 </wgt>
<wgt id='1653'> +7.5894514e+01 </wgt>
<wgt id='1654'> +7.5904770e+01 </wgt>
<wgt id='1655'> +7.5914507e+01 </wgt>
<wgt id='1656'> +7.5902183e+01 </wgt>
<wgt id='1657'> +7.5875078e+01 </wgt>
<wgt id='1658'> +7.5910262e+01 </wgt>
<wgt id='1659'> +7.5889800e+01 </wgt>
<wgt id='1660'> +7.5921345e+01 </wgt>
<wgt id='1661'> +7.5931513e+01 </wgt>
<wgt id='1662'> +7.5899477e+01 </wgt>
<wgt id='1663'> +7.5888450e+01 </wgt>
<wgt id='1664'> +7.5929410e+01 </wgt>
<wgt id='1665'> +7.5908892e+01 </wgt>
<wgt id='1666'> +7.5913064e+01 </wgt>
<wgt id='1667'> +7.5909788e+01 </wgt>
<wgt id='1668'> +7.5888206e+01 </wgt>
<wgt id='1669'> +7.5912029e+01 </wgt>
<wgt id='1670'> +7.5125237e+01 </wgt>
<wgt id='1671'> +7.6433006e+01 </wgt>
<wgt id='1672'> +7.6206677e+01 </wgt>
<wgt id='1673'> +7.5781039e+01 </wgt>
<wgt id='1674'> +7.5911859e+01 </wgt>
<wgt id='1675'> +7.6187333e+01 </wgt>
<wgt id='1676'> +7.6879482e+01 </wgt>
<wgt id='1677'> +7.6964716e+01 </wgt>
<wgt id='1678'> +7.6301986e+01 </wgt>
<wgt id='1679'> +7.6151508e+01 </wgt>
<wgt id='1680'> +7.6331996e+01 </wgt>
<wgt id='1681'> +7.6080025e+01 </wgt>
<wgt id='1682'> +7.6289028e+01 </wgt>
<wgt id='1683'> +7.6285289e+01 </wgt>
<wgt id='1684'> +7.6727119e+01 </wgt>
<wgt id='1685'> +7.6205286e+01 </wgt>
<wgt id='1686'> +7.6221340e+01 </wgt>
<wgt id='1687'> +7.6387888e+01 </wgt>
<wgt id='1688'> +7.6231572e+01 </wgt>
<wgt id='1689'> +7.5601666e+01 </wgt>
<wgt id='1690'> +7.6185681e+01 </wgt>
<wgt id='1691'> +7.6391878e+01 </wgt>
<wgt id='1692'> +7.6460110e+01 </wgt>
<wgt id='1693'> +7.6028340e+01 </wgt>
<wgt id='1694'> +7.6020298e+01 </wgt>
<wgt id='1695'> +7.6226182e+01 </wgt>
<wgt id='1696'> +7.5981692e+01 </wgt>
<wgt id='1697'> +7.6253096e+01 </wgt>
<wgt id='1698'> +7.5975560e+01 </wgt>
<wgt id='1699'> +7.6197342e+01 </wgt>
<wgt id='1700'> +7.6085850e+01 </wgt>
<wgt id='1701'> +7.6266277e+01 </wgt>
<wgt id='1702'> +7.6297682e+01 </wgt>
<wgt id='1703'> +7.5291568e+01 </wgt>
<wgt id='1704'> +7.6967384e+01 </wgt>
<wgt id='1705'> +7.5908699e+01 </wgt>
<wgt id='1706'> +7.6250370e+01 </wgt>
<wgt id='1707'> +7.5878745e+01 </wgt>
<wgt id='1708'> +7.5798695e+01 </wgt>
<wgt id='1709'> +7.5792550e+01 </wgt>
<wgt id='1710'> +7.4965189e+01 </wgt>
<wgt id='1711'> +7.5902934e+01 </wgt>
<wgt id='1712'> +7.5808587e+01 </wgt>
<wgt id='1713'> +7.5653231e+01 </wgt>
<wgt id='1714'> +7.5526720e+01 </wgt>
<wgt id='1715'> +7.6276403e+01 </wgt>
<wgt id='1716'> +7.5902773e+01 </wgt>
<wgt id='1717'> +7.5978143e+01 </wgt>
<wgt id='1718'> +7.6053545e+01 </wgt>
<wgt id='1719'> +7.5850167e+01 </wgt>
<wgt id='1720'> +7.5665778e+01 </wgt>
<wgt id='1721'> +7.5779143e+01 </wgt>
<wgt id='1722'> +7.5643791e+01 </wgt>
<wgt id='1723'> +7.5926219e+01 </wgt>
<wgt id='1724'> +7.5990925e+01 </wgt>
<wgt id='1725'> +7.5797969e+01 </wgt>
<wgt id='1726'> +7.5876760e+01 </wgt>
<wgt id='1727'> +7.6408140e+01 </wgt>
<wgt id='1728'> +7.5844706e+01 </wgt>
<wgt id='1729'> +7.6015091e+01 </wgt>
<wgt id='1730'> +7.5774089e+01 </wgt>
<wgt id='1731'> +7.5991552e+01 </wgt>
<wgt id='1732'> +7.5985348e+01 </wgt>
<wgt id='1733'> +7.6083770e+01 </wgt>
<wgt id='1734'> +7.5984635e+01 </wgt>
<wgt id='1735'> +7.6086117e+01 </wgt>
<wgt id='1736'> +7.5125237e+01 </wgt>
<wgt id='1737'> +7.6433006e+01 </wgt>
<wgt id='1738'> +8.3875786e+01 </wgt>
<wgt id='1739'> +8.3829436e+01 </wgt>
<wgt id='1740'> +8.3921844e+01 </wgt>
<wgt id='1741'> +8.3925810e+01 </wgt>
<wgt id='1742'> +8.3825427e+01 </wgt>
<wgt id='1743'> +8.3729874e+01 </wgt>
<wgt id='1744'> +8.4020986e+01 </wgt>
<wgt id='1745'> +8.3969516e+01 </wgt>
<wgt id='1746'> +8.3783367e+01 </wgt>
<wgt id='1747'> +8.4399003e+01 </wgt>
<wgt id='1748'> +8.3354101e+01 </wgt>
<wgt id='1749'> +8.3922441e+01 </wgt>
<wgt id='1750'> +8.3817997e+01 </wgt>
<wgt id='1751'> +8.3581141e+01 </wgt>
<wgt id='1752'> +8.4168723e+01 </wgt>
<wgt id='1753'> +8.3708569e+01 </wgt>
<wgt id='1754'> +8.4031509e+01 </wgt>
<wgt id='1755'> +8.3736500e+01 </wgt>
<wgt id='1756'> +8.3941398e+01 </wgt>
<wgt id='1757'> +8.3633128e+01 </wgt>
<wgt id='1758'> +8.4137916e+01 </wgt>
<wgt id='1759'> +8.4091174e+01 </wgt>
<wgt id='1760'> +8.3636263e+01 </wgt>
<wgt id='1761'> +8.3239271e+01 </wgt>
<wgt id='1762'> +8.4261155e+01 </wgt>
<wgt id='1763'> +8.4088534e+01 </wgt>
<wgt id='1764'> +8.3608375e+01 </wgt>
<wgt id='1765'> +8.3376012e+01 </wgt>
<wgt id='1766'> +8.4273452e+01 </wgt>
<wgt id='1767'> +8.3875786e+01 </wgt>
<wgt id='1768'> +8.3580751e+01 </wgt>
<wgt id='1769'> +8.4182805e+01 </wgt>
<wgt id='1770'> +8.3520697e+01 </wgt>
<wgt id='1771'> +8.4095825e+01 </wgt>
<wgt id='1772'> +8.4312719e+01 </wgt>
<wgt id='1773'> +8.3391357e+01 </wgt>
<wgt id='1774'> +8.3700021e+01 </wgt>
<wgt id='1775'> +8.4052522e+01 </wgt>
<wgt id='1776'> +8.3607168e+01 </wgt>
<wgt id='1777'> +8.4174214e+01 </wgt>
<wgt id='1778'> +8.3788282e+01 </wgt>
<wgt id='1779'> +8.4193957e+01 </wgt>
<wgt id='1780'> +8.5391595e+01 </wgt>
<wgt id='1781'> +8.1573013e+01 </wgt>
<wgt id='1782'> +8.1558768e+01 </wgt>
<wgt id='1783'> +8.1610752e+01 </wgt>
<wgt id='1784'> +8.1658271e+01 </wgt>
<wgt id='1785'> +8.1511240e+01 </wgt>
<wgt id='1786'> +8.1470030e+01 </wgt>
<wgt id='1787'> +8.1698618e+01 </wgt>
<wgt id='1788'> +8.1564042e+01 </wgt>
<wgt id='1789'> +8.1606628e+01 </wgt>
<wgt id='1790'> +8.1955316e+01 </wgt>
<wgt id='1791'> +8.1214488e+01 </wgt>
<wgt id='1792'> +8.1908601e+01 </wgt>
<wgt id='1793'> +8.1260906e+01 </wgt>
<wgt id='1794'> +8.1290520e+01 </wgt>
<wgt id='1795'> +8.1880157e+01 </wgt>
<wgt id='1796'> +8.1458079e+01 </wgt>
<wgt id='1797'> +8.1752022e+01 </wgt>
<wgt id='1798'> +8.1753743e+01 </wgt>
<wgt id='1799'> +8.1404152e+01 </wgt>
<wgt id='1800'> +8.1499810e+01 </wgt>
<wgt id='1801'> +8.1666644e+01 </wgt>
<wgt id='1802'> +8.0978920e+01 </wgt>
<wgt id='1803'> +8.2152854e+01 </wgt>
<wgt id='1804'> +8.1662075e+01 </wgt>
<wgt id='1805'> +8.1419806e+01 </wgt>
<wgt id='1806'> +8.1504026e+01 </wgt>
<wgt id='1807'> +8.1424745e+01 </wgt>
<wgt id='1808'> +8.1321920e+01 </wgt>
<wgt id='1809'> +8.1688136e+01 </wgt>
<wgt id='1810'> +8.1570891e+01 </wgt>
<wgt id='1811'> +8.1486944e+01 </wgt>
<wgt id='1812'> +8.1472982e+01 </wgt>
<wgt id='1813'> +8.1476520e+01 </wgt>
<wgt id='1814'> +8.1610886e+01 </wgt>
<wgt id='1815'> +8.1786962e+01 </wgt>
<wgt id='1816'> +8.1148598e+01 </wgt>
<wgt id='1817'> +8.1410240e+01 </wgt>
<wgt id='1818'> +8.1875658e+01 </wgt>
<wgt id='1819'> +8.0761832e+01 </wgt>
<wgt id='1820'> +8.2032788e+01 </wgt>
<wgt id='1821'> +8.0753971e+01 </wgt>
<wgt id='1822'> +8.2397963e+01 </wgt>
<wgt id='1823'> +8.1202483e+01 </wgt>
<wgt id='1824'> +7.6598763e+01 </wgt>
<wgt id='1825'> +7.6590388e+01 </wgt>
<wgt id='1826'> +7.6581941e+01 </wgt>
<wgt id='1827'> +7.6573484e+01 </wgt>
<wgt id='1828'> +7.6564994e+01 </wgt>
<wgt id='1829'> +7.6556511e+01 </wgt>
<wgt id='1830'> +7.6548119e+01 </wgt>
<wgt id='1831'> +7.6539652e+01 </wgt>
<wgt id='1832'> +7.6531204e+01 </wgt>
<wgt id='1833'> +7.6522807e+01 </wgt>
<wgt id='1834'> +7.6514523e+01 </wgt>
<wgt id='1835'> +7.6506066e+01 </wgt>
<wgt id='1836'> +7.6497523e+01 </wgt>
<wgt id='1837'> +7.6489025e+01 </wgt>
<wgt id='1838'> +7.6480712e+01 </wgt>
<wgt id='1839'> +7.6472109e+01 </wgt>
<wgt id='1840'> +7.6463778e+01 </wgt>
<wgt id='1841'> +7.6455418e+01 </wgt>
<wgt id='1842'> +7.6446724e+01 </wgt>
<wgt id='1843'> +7.6438303e+01 </wgt>
<wgt id='1844'> +7.6429997e+01 </wgt>
<wgt id='1845'> +7.6421503e+01 </wgt>
<wgt id='1846'> +7.6413148e+01 </wgt>
<wgt id='1847'> +7.6404557e+01 </wgt>
<wgt id='1848'> +7.6396249e+01 </wgt>
<wgt id='1849'> +7.6387711e+01 </wgt>
<wgt id='1850'> +7.6379412e+01 </wgt>
<wgt id='1851'> +7.6370928e+01 </wgt>
<wgt id='1852'> +7.6362283e+01 </wgt>
<wgt id='1853'> +7.6353971e+01 </wgt>
<wgt id='1854'> +7.6345506e+01 </wgt>
<wgt id='1855'> +7.5284152e+01 </wgt>
<wgt id='1856'> +7.5333983e+01 </wgt>
<wgt id='1857'> +7.5373290e+01 </wgt>
<wgt id='1858'> +7.4979463e+01 </wgt>
<wgt id='1859'> +7.5245018e+01 </wgt>
<wgt id='1860'> +7.5339745e+01 </wgt>
<wgt id='1861'> +7.5359639e+01 </wgt>
<wgt id='1862'> +7.5710012e+01 </wgt>
<wgt id='1863'> +7.5555460e+01 </wgt>
<wgt id='1864'> +7.5305087e+01 </wgt>
<wgt id='1865'> +7.5338956e+01 </wgt>
<wgt id='1866'> +7.5690915e+01 </wgt>
<wgt id='1867'> +7.4627765e+01 </wgt>
<wgt id='1868'> +7.4975890e+01 </wgt>
<wgt id='1869'> +7.4822006e+01 </wgt>
<wgt id='1870'> +7.5154942e+01 </wgt>
<wgt id='1871'> +7.5338538e+01 </wgt>
<wgt id='1872'> +7.5328046e+01 </wgt>
<wgt id='1873'> +7.5246772e+01 </wgt>
<wgt id='1874'> +7.4990870e+01 </wgt>
<wgt id='1875'> +7.5467854e+01 </wgt>
<wgt id='1876'> +7.5499737e+01 </wgt>
<wgt id='1877'> +7.5040380e+01 </wgt>
<wgt id='1878'> +7.5629761e+01 </wgt>
<wgt id='1879'> +7.5609517e+01 </wgt>
<wgt id='1880'> +7.5137737e+01 </wgt>
<wgt id='1881'> +7.5199853e+01 </wgt>
<wgt id='1882'> +7.5373258e+01 </wgt>
<wgt id='1883'> +7.5205481e+01 </wgt>
<wgt id='1884'> +7.5114202e+01 </wgt>
<wgt id='1885'> +7.5252184e+01 </wgt>
<wgt id='1886'> +7.5492680e+01 </wgt>
<wgt id='1887'> +7.5430825e+01 </wgt>
<wgt id='1888'> +7.5501864e+01 </wgt>
<wgt id='1889'> +7.5451171e+01 </wgt>
<wgt id='1890'> +7.5056876e+01 </wgt>
<wgt id='1891'> +7.5390327e+01 </wgt>
<wgt id='1892'> +7.5288294e+01 </wgt>
<wgt id='1893'> +7.5404266e+01 </wgt>
<wgt id='1894'> +7.5137464e+01 </wgt>
<wgt id='1895'> +7.5200496e+01 </wgt>
<wgt id='1896'> +7.5266901e+01 </wgt>
<wgt id='1897'> +7.5313743e+01 </wgt>
<wgt id='1898'> +7.5116235e+01 </wgt>
<wgt id='1899'> +7.5354280e+01 </wgt>
<wgt id='1900'> +7.5287354e+01 </wgt>
<wgt id='1901'> +7.5269350e+01 </wgt>
<wgt id='1902'> +7.5117377e+01 </wgt>
<wgt id='1903'> +7.5378256e+01 </wgt>
<wgt id='1904'> +7.5173835e+01 </wgt>
<wgt id='1905'> +7.5394506e+01 </wgt>
<wgt id='1906'> +7.5389253e+01 </wgt>
<wgt id='1907'> +7.5350134e+01 </wgt>
<wgt id='1908'> +7.5207403e+01 </wgt>
<wgt id='1909'> +7.5223357e+01 </wgt>
<wgt id='1910'> +7.5269440e+01 </wgt>
<wgt id='1911'> +7.5292858e+01 </wgt>
<wgt id='1912'> +7.5261752e+01 </wgt>
<wgt id='1913'> +7.5140269e+01 </wgt>
<wgt id='1914'> +7.5280213e+01 </wgt>
<wgt id='1915'> +7.5292909e+01 </wgt>
<wgt id='1916'> +7.5239166e+01 </wgt>
<wgt id='1917'> +7.5306370e+01 </wgt>
<wgt id='1918'> +7.5256285e+01 </wgt>
<wgt id='1919'> +7.5286981e+01 </wgt>
<wgt id='1920'> +7.5287102e+01 </wgt>
<wgt id='1921'> +7.5292727e+01 </wgt>
<wgt id='1922'> +7.5313157e+01 </wgt>
<wgt id='1923'> +7.5267882e+01 </wgt>
<wgt id='1924'> +7.5302197e+01 </wgt>
<wgt id='1925'> +7.5263725e+01 </wgt>
<wgt id='1926'> +7.5305305e+01 </wgt>
<wgt id='1927'> +7.5361974e+01 </wgt>
<wgt id='1928'> +7.5231040e+01 </wgt>
<wgt id='1929'> +7.5290718e+01 </wgt>
<wgt id='1930'> +7.5275425e+01 </wgt>
<wgt id='1931'> +7.5313593e+01 </wgt>
<wgt id='1932'> +7.5316450e+01 </wgt>
<wgt id='1933'> +7.5295969e+01 </wgt>
<wgt id='1934'> +7.5285043e+01 </wgt>
<wgt id='1935'> +7.5326205e+01 </wgt>
<wgt id='1936'> +7.5316708e+01 </wgt>
<wgt id='1937'> +7.5289520e+01 </wgt>
<wgt id='1938'> +7.5251153e+01 </wgt>
<wgt id='1939'> +7.5266884e+01 </wgt>
<wgt id='1940'> +7.5276048e+01 </wgt>
<wgt id='1941'> +7.5285326e+01 </wgt>
<wgt id='1942'> +7.5274146e+01 </wgt>
<wgt id='1943'> +7.5247580e+01 </wgt>
<wgt id='1944'> +7.5282511e+01 </wgt>
<wgt id='1945'> +7.5262223e+01 </wgt>
<wgt id='1946'> +7.5293455e+01 </wgt>
<wgt id='1947'> +7.5303222e+01 </wgt>
<wgt id='1948'> +7.5271428e+01 </wgt>
<wgt id='1949'> +7.5261225e+01 </wgt>
<wgt id='1950'> +7.5301050e+01 </wgt>
<wgt id='1951'> +7.5280261e+01 </wgt>
<wgt id='1952'> +7.5284987e+01 </wgt>
<wgt id='1953'> +7.5281711e+01 </wgt>
<wgt id='1954'> +7.5259929e+01 </wgt>
<wgt id='1955'> +7.5283285e+01 </wgt>
<wgt id='1956'> +7.5283681e+01 </wgt>
<wgt id='1957'> +7.5286740e+01 </wgt>
<wgt id='1958'> +7.5284652e+01 </wgt>
<wgt id='1959'> +7.5284730e+01 </wgt>
<wgt id='1960'> +7.5285607e+01 </wgt>
<wgt id='1961'> +7.5284361e+01 </wgt>
<wgt id='1962'> +7.5287302e+01 </wgt>
</rwgt>
</event>
<event npLO=" -1 " npNLO=" 1 ">
 7      1 +1.5146096e+02 1.32677880e+01 7.54677110e-03 1.15914710e-01
        2 -1    0    0  502    0 +0.0000000000e+00 +0.0000000000e+00 +6.7428181000e+02 6.7428181000e+02 0.0000000000e+00 0.0000e+00 9.0000e+00
       -2 -1    0    0    0  501 +0.0000000000e+00 +0.0000000000e+00 -4.7231730000e+00 4.7231730000e+00 0.0000000000e+00 0.0000e+00 9.0000e+00
       23  2    1    2    0    0 -1.2533718000e+01 -4.3520241000e+00 +4.8661367000e+02 4.9557954000e+02 9.2898746000e+01 0.0000e+00 0.0000e+00
       13  1    3    3    0    0 -4.9209236000e+01 -9.7072072000e+00 +3.6264263000e+02 3.6609487000e+02 0.0000000000e+00 0.0000e+00 9.0000e+00
      -13  1    3    3    0    0 +2.2255494000e+01 +1.0267255000e+00 +7.0736949000e+01 7.4162505000e+01 0.0000000000e+00 0.0000e+00 9.0000e+00
       22  1    3    3    0    0 +1.4420023000e+01 +4.3284576000e+00 +5.3234094000e+01 5.5322160000e+01 0.0000000000e+00 0.0000e+00 9.0000e+00
       21  1    1    2  502  501 +1.2533718000e+01 +4.3520241000e+00 +1.8294496000e+02 1.8342544000e+02 0.0000000000e+00 0.0000e+00 9.0000e+00
#aMCatNLO 1  0  0  1  6 0.11369290E+02 0.00000000E+00 -9  7  0 0.00000000E+00 0.00000000E+00 0.00000000E+00 0.00000000E+00 0.00000000E+00
<rwgt>
<wgt id='1001'> +1.5146000e+02 </wgt>
<wgt id='1002'> +1.5146000e+02 </wgt>
<wgt id='1003'> +1.4531000e+02 </wgt>
<wgt id='1004'> +1.5182000e+02 </wgt>
<wgt id='1005'> +1.5614000e+02 </wgt>
<wgt id='1006'> +1.5430000e+02 </wgt>
<wgt id='1007'> +1.5044000e+02 </wgt>
<wgt id='1008'> +1.5443000e+02 </wgt>
<wgt id='1009'> +1.4982000e+02 </wgt>
<wgt id='1010'> +1.4702000e+02 </wgt>
<wgt id='1011'> +1.4970000e+02 </wgt>
<wgt id='1012'> +1.5267000e+02 </wgt>
<wgt id='1013'> +1.4011000e+02 </wgt>
<wgt id='1014'> +1.5525000e+02 </wgt>
<wgt id='1015'> +1.5806000e+02 </wgt>
<wgt id='1016'> +1.5214000e+02 </wgt>
<wgt id='1017'> +1.4984000e+02 </wgt>
<wgt id='1018'> +1.4700000e+02 </wgt>
<wgt id='1019'> +1.4887000e+02 </wgt>
<wgt id='1020'> +1.4475000e+02 </wgt>
<wgt id='1021'> +1.5186000e+02 </wgt>
<wgt id='1022'> +1.4738000e+02 </wgt>
<wgt id='1023'> +1.5689000e+02 </wgt>
<wgt id='1024'> +1.4627000e+02 </wgt>
<wgt id='1025'> +1.5700000e+02 </wgt>
<wgt id='1026'> +1.5617000e+02 </wgt>
<wgt id='1027'> +1.5151000e+02 </wgt>
<wgt id='1028'> +1.5338000e+02 </wgt>
<wgt id='1029'> +1.4669000e+02 </wgt>
<wgt id='1030'> +1.5278000e+02 </wgt>
<wgt id='1031'> +1.4945000e+02 </wgt>
<wgt id='1032'> +1.5174000e+02 </wgt>
<wgt id='1033'> +1.5676000e+02 </wgt>
<wgt id='1034'> +1.4697000e+02 </wgt>
<wgt id='1035'> +1.5330000e+02 </wgt>
<wgt id='1036'> +1.5754000e+02 </wgt>
<wgt id='1037'> +1.5367000e+02 </wgt>
<wgt id='1038'> +1.5223000e+02 </wgt>
<wgt id='1039'> +1.4819000e+02 </wgt>
<wgt id='1040'> +1.4383000e+02 </wgt>
<wgt id='1041'> +1.5098000e+02 </wgt>
<wgt id='1042'> +1.5207000e+02 </wgt>
<wgt id='1043'> +1.5523000e+02 </wgt>
<wgt id='1044'> +1.5403000e+02 </wgt>
<wgt id='1045'> +1.5212000e+02 </wgt>
<wgt id='1046'> +1.5102000e+02 </wgt>
<wgt id='1047'> +1.5473000e+02 </wgt>
<wgt id='1048'> +1.5500000e+02 </wgt>
<wgt id='1049'> +1.4958000e+02 </wgt>
<wgt id='1050'> +1.5148000e+02 </wgt>
<wgt id='1051'> +1.5362000e+02 </wgt>
<wgt id='1052'> +1.5427000e+02 </wgt>
<wgt id='1053'> +1.5374000e+02 </wgt>
<wgt id='1054'> +1.5220000e+02 </wgt>
<wgt id='1055'> +1.5498000e+02 </wgt>
<wgt id='1056'> +1.5234000e+02 </wgt>
<wgt id='1057'> +1.5297000e+02 </wgt>
<wgt id='1058'> +1.4976000e+02 </wgt>
<wgt id='1059'> +1.5473000e+02 </wgt>
<wgt id='1060'> +1.5409000e+02 </wgt>
<wgt id='1061'> +1.5214000e+02 </wgt>
<wgt id='1062'> +1.5165000e+02 </wgt>
<wgt id='1063'> +1.5228000e+02 </wgt>
<wgt id='1064'> +1.5050000e+02 </wgt>
<wgt id='1065'> +1.5927000e+02 </wgt>
<wgt id='1066'> +1.4100000e+02 </wgt>
<wgt id='1067'> +1.5393000e+02 </wgt>
<wgt id='1068'> +1.5212000e+02 </wgt>
<wgt id='1069'> +1.4750000e+02 </wgt>
<wgt id='1070'> +1.5514000e+02 </wgt>
<wgt id='1071'> +1.5054000e+02 </wgt>
<wgt id='1072'> +1.4959000e+02 </wgt>
<wgt id='1073'> +1.5290000e+02 </wgt>
<wgt id='1074'> +1.4991000e+02 </wgt>
<wgt id='1075'> +1.4484000e+02 </wgt>
<wgt id='1076'> +1.5904000e+02 </wgt>
<wgt id='1077'> +1.5097000e+02 </wgt>
<wgt id='1078'> +1.4719000e+02 </wgt>
<wgt id='1079'> +1.5004000e+02 </wgt>
<wgt id='1080'> +1.5199000e+02 </wgt>
<wgt id='1081'> +1.4797000e+02 </wgt>
<wgt id='1082'> +1.5041000e+02 </wgt>
<wgt id='1083'> +1.5491000e+02 </wgt>
<wgt id='1084'> +1.5698000e+02 </wgt>
<wgt id='1085'> +1.4616000e+02 </wgt>
<wgt id='1086'> +1.5187000e+02 </wgt>
<wgt id='1087'> +1.5001000e+02 </wgt>
<wgt id='1088'> +1.4928000e+02 </wgt>
<wgt id='1089'> +1.5455000e+02 </wgt>
<wgt id='1090'> +1.5325000e+02 </wgt>
<wgt id='1091'> +1.4627000e+02 </wgt>
<wgt id='1092'> +1.5314000e+02 </wgt>
<wgt id='1093'> +1.5160000e+02 </wgt>
<wgt id='1094'> +1.4809000e+02 </wgt>
<wgt id='1095'> +1.4836000e+02 </wgt>
<wgt id='1096'> +1.5180000e+02 </wgt>
<wgt id='1097'> +1.4768000e+02 </wgt>
<wgt id='1098'> +1.5164000e+02 </wgt>
<wgt id='1099'> +1.5191000e+02 </wgt>
<wgt id='1100'> +1.5762000e+02 </wgt>
<wgt id='1101'> +1.5231000e+02 </wgt>
<wgt id='1102'> +1.4786000e+02 </wgt>
<wgt id='1103'> +1.4875000e+02 </wgt>
<wgt id='1104'> +1.5441000e+02 </wgt>
<wgt id='1105'> +1.5146096e+02 </wgt>
<wgt id='1106'> +7.2177164e+01 </wgt>
<wgt id='1107'> +7.7628962e+01 </wgt>
<wgt id='1108'> +8.0549874e+01 </wgt>
<wgt id='1109'> +7.7540543e+01 </wgt>
<wgt id='1110'> +8.1154978e+01 </wgt>
<wgt id='1111'> +6.9918257e+01 </wgt>
<wgt id='1112'> +6.5890371e+01 </wgt>
<wgt id='1113'> +7.3043297e+01 </wgt>
<wgt id='1114'> +8.1729020e+01 </wgt>
<wgt id='1115'> +8.3535002e+01 </wgt>
<wgt id='1116'> +8.2768571e+01 </wgt>
<wgt id='1117'> +8.0763676e+01 </wgt>
<wgt id='1118'> +7.9202445e+01 </wgt>
<wgt id='1119'> +7.9853185e+01 </wgt>
<wgt id='1120'> +8.1342366e+01 </wgt>
<wgt id='1121'> +8.2678519e+01 </wgt>
<wgt id='1122'> +8.2679589e+01 </wgt>
<wgt id='1123'> +8.0834322e+01 </wgt>
<wgt id='1124'> +7.9147116e+01 </wgt>
<wgt id='1125'> +8.1710661e+01 </wgt>
<wgt id='1126'> +8.0005052e+01 </wgt>
<wgt id='1127'> +8.1775253e+01 </wgt>
<wgt id='1128'> +8.3969959e+01 </wgt>
<wgt id='1129'> +8.1920049e+01 </wgt>
<wgt id='1130'> +8.1216744e+01 </wgt>
<wgt id='1131'> +8.2222419e+01 </wgt>
<wgt id='1132'> +8.0783125e+01 </wgt>
<wgt id='1133'> +8.3100342e+01 </wgt>
<wgt id='1134'> +8.0363652e+01 </wgt>
<wgt id='1135'> +8.0313878e+01 </wgt>
<wgt id='1136'> +8.2024119e+01 </wgt>
<wgt id='1137'> +8.2541891e+01 </wgt>
<wgt id='1138'> +8.0262546e+01 </wgt>
<wgt id='1139'> +8.2475347e+01 </wgt>
<wgt id='1140'> +8.4806064e+01 </wgt>
<wgt id='1141'> +8.3132800e+01 </wgt>
<wgt id='1142'> +8.1958913e+01 </wgt>
<wgt id='1143'> +8.2601615e+01 </wgt>
<wgt id='1144'> +8.3633620e+01 </wgt>
<wgt id='1145'> +8.2763391e+01 </wgt>
<wgt id='1146'> +8.0090331e+01 </wgt>
<wgt id='1147'> +8.2073935e+01 </wgt>
<wgt id='1148'> +8.0834779e+01 </wgt>
<wgt id='1149'> +7.9814649e+01 </wgt>
<wgt id='1150'> +8.1463187e+01 </wgt>
<wgt id='1151'> +7.9825790e+01 </wgt>
<wgt id='1152'> +8.1056304e+01 </wgt>
<wgt id='1153'> +8.1398244e+01 </wgt>
<wgt id='1154'> +8.3114982e+01 </wgt>
<wgt id='1155'> +8.2572964e+01 </wgt>
<wgt id='1156'> +8.2484205e+01 </wgt>
<wgt id='1157'> +8.1353004e+01 </wgt>
<wgt id='1158'> +8.1935233e+01 </wgt>
<wgt id='1159'> +8.0347558e+01 </wgt>
<wgt id='1160'> +8.2008104e+01 </wgt>
<wgt id='1161'> +8.2966089e+01 </wgt>
<wgt id='1162'> +8.5086414e+01 </wgt>
<wgt id='1163'> +8.3842193e+01 </wgt>
<wgt id='1164'> +8.1493253e+01 </wgt>
<wgt id='1165'> +8.1588051e+01 </wgt>
<wgt id='1166'> +8.0965684e+01 </wgt>
<wgt id='1167'> +8.3822452e+01 </wgt>
<wgt id='1168'> +8.1772373e+01 </wgt>
<wgt id='1169'> +8.4710693e+01 </wgt>
<wgt id='1170'> +8.0792533e+01 </wgt>
<wgt id='1171'> +8.2327541e+01 </wgt>
<wgt id='1172'> +8.2059940e+01 </wgt>
<wgt id='1173'> +8.3210423e+01 </wgt>
<wgt id='1174'> +8.3170175e+01 </wgt>
<wgt id='1175'> +8.1066412e+01 </wgt>
<wgt id='1176'> +8.0930007e+01 </wgt>
<wgt id='1177'> +8.2446936e+01 </wgt>
<wgt id='1178'> +8.3510220e+01 </wgt>
<wgt id='1179'> +8.1907498e+01 </wgt>
<wgt id='1180'> +8.4079433e+01 </wgt>
<wgt id='1181'> +8.1799744e+01 </wgt>
<wgt id='1182'> +8.2492093e+01 </wgt>
<wgt id='1183'> +8.3011292e+01 </wgt>
<wgt id='1184'> +8.1255339e+01 </wgt>
<wgt id='1185'> +8.1010557e+01 </wgt>
<wgt id='1186'> +8.2788232e+01 </wgt>
<wgt id='1187'> +7.8667619e+01 </wgt>
<wgt id='1188'> +8.0713395e+01 </wgt>
<wgt id='1189'> +8.0694120e+01 </wgt>
<wgt id='1190'> +8.4511902e+01 </wgt>
<wgt id='1191'> +7.9783341e+01 </wgt>
<wgt id='1192'> +8.2837678e+01 </wgt>
<wgt id='1193'> +8.1614887e+01 </wgt>
<wgt id='1194'> +8.1047980e+01 </wgt>
<wgt id='1195'> +8.0922435e+01 </wgt>
<wgt id='1196'> +8.1216744e+01 </wgt>
<wgt id='1197'> +7.9317795e+01 </wgt>
<wgt id='1198'> +8.0956282e+01 </wgt>
<wgt id='1199'> +8.1093910e+01 </wgt>
<wgt id='1200'> +8.2293071e+01 </wgt>
<wgt id='1201'> +8.0776854e+01 </wgt>
<wgt id='1202'> +8.0805957e+01 </wgt>
<wgt id='1203'> +7.6934633e+01 </wgt>
<wgt id='1204'> +8.0831451e+01 </wgt>
<wgt id='1205'> +8.2170126e+01 </wgt>
<wgt id='1206'> +8.1294149e+01 </wgt>
<wgt id='1207'> +8.0546053e+01 </wgt>
<wgt id='1208'> +8.2274083e+01 </wgt>
<wgt id='1209'> +7.9583738e+01 </wgt>
<wgt id='1210'> +8.2838429e+01 </wgt>
<wgt id='1211'> +8.1447418e+01 </wgt>
<wgt id='1212'> +8.2069612e+01 </wgt>
<wgt id='1213'> +8.3657682e+01 </wgt>
<wgt id='1214'> +8.1182827e+01 </wgt>
<wgt id='1215'> +7.9552246e+01 </wgt>
<wgt id='1216'> +7.9941259e+01 </wgt>
<wgt id='1217'> +7.9885928e+01 </wgt>
<wgt id='1218'> +8.0105941e+01 </wgt>
<wgt id='1219'> +7.9805268e+01 </wgt>
<wgt id='1220'> +8.0331401e+01 </wgt>
<wgt id='1221'> +7.9811994e+01 </wgt>
<wgt id='1222'> +7.9815826e+01 </wgt>
<wgt id='1223'> +7.9830207e+01 </wgt>
<wgt id='1224'> +7.9634169e+01 </wgt>
<wgt id='1225'> +7.9984377e+01 </wgt>
<wgt id='1226'> +7.9640984e+01 </wgt>
<wgt id='1227'> +7.9838510e+01 </wgt>
<wgt id='1228'> +7.9959161e+01 </wgt>
<wgt id='1229'> +7.9924584e+01 </wgt>
<wgt id='1230'> +8.0229077e+01 </wgt>
<wgt id='1231'> +7.9626668e+01 </wgt>
<wgt id='1232'> +7.9702056e+01 </wgt>
<wgt id='1233'> +7.9995775e+01 </wgt>
<wgt id='1234'> +8.0026758e+01 </wgt>
<wgt id='1235'> +8.0027704e+01 </wgt>
<wgt id='1236'> +7.9753493e+01 </wgt>
<wgt id='1237'> +8.0082443e+01 </wgt>
<wgt id='1238'> +8.0108564e+01 </wgt>
<wgt id='1239'> +8.0325860e+01 </wgt>
<wgt id='1240'> +7.9940477e+01 </wgt>
<wgt id='1241'> +7.9573102e+01 </wgt>
<wgt id='1242'> +7.9792179e+01 </wgt>
<wgt id='1243'> +8.0143296e+01 </wgt>
<wgt id='1244'> +8.0006634e+01 </wgt>
<wgt id='1245'> +8.0492874e+01 </wgt>
<wgt id='1246'> +7.9385325e+01 </wgt>
<wgt id='1247'> +7.9521720e+01 </wgt>
<wgt id='1248'> +8.0002050e+01 </wgt>
<wgt id='1249'> +8.0067207e+01 </wgt>
<wgt id='1250'> +8.0031113e+01 </wgt>
<wgt id='1251'> +8.0117454e+01 </wgt>
<wgt id='1252'> +8.0079004e+01 </wgt>
<wgt id='1253'> +7.9828083e+01 </wgt>
<wgt id='1254'> +7.9994289e+01 </wgt>
<wgt id='1255'> +7.9948749e+01 </wgt>
<wgt id='1256'> +7.9892659e+01 </wgt>
<wgt id='1257'> +8.0068039e+01 </wgt>
<wgt id='1258'> +8.0041879e+01 </wgt>
<wgt id='1259'> +7.9802199e+01 </wgt>
<wgt id='1260'> +7.9985798e+01 </wgt>
<wgt id='1261'> +7.9979575e+01 </wgt>
<wgt id='1262'> +7.9921791e+01 </wgt>
<wgt id='1263'> +7.9966068e+01 </wgt>
<wgt id='1264'> +8.0102013e+01 </wgt>
<wgt id='1265'> +7.9928353e+01 </wgt>
<wgt id='1266'> +7.9828223e+01 </wgt>
<wgt id='1267'> +7.9902928e+01 </wgt>
<wgt id='1268'> +7.9995790e+01 </wgt>
<wgt id='1269'> +7.9858621e+01 </wgt>
<wgt id='1270'> +7.9932669e+01 </wgt>
<wgt id='1271'> +8.0000691e+01 </wgt>
<wgt id='1272'> +7.9802212e+01 </wgt>
<wgt id='1273'> +7.9928665e+01 </wgt>
<wgt id='1274'> +7.9818149e+01 </wgt>
<wgt id='1275'> +8.0006531e+01 </wgt>
<wgt id='1276'> +7.9956280e+01 </wgt>
<wgt id='1277'> +7.9924522e+01 </wgt>
<wgt id='1278'> +7.9851314e+01 </wgt>
<wgt id='1279'> +8.0001115e+01 </wgt>
<wgt id='1280'> +7.9902241e+01 </wgt>
<wgt id='1281'> +8.0049603e+01 </wgt>
<wgt id='1282'> +7.9914190e+01 </wgt>
<wgt id='1283'> +7.9851299e+01 </wgt>
<wgt id='1284'> +8.0023795e+01 </wgt>
<wgt id='1285'> +7.9887376e+01 </wgt>
<wgt id='1286'> +7.9958607e+01 </wgt>
<wgt id='1287'> +7.9872881e+01 </wgt>
<wgt id='1288'> +7.9979351e+01 </wgt>
<wgt id='1289'> +7.9917181e+01 </wgt>
<wgt id='1290'> +8.0045590e+01 </wgt>
<wgt id='1291'> +7.9888715e+01 </wgt>
<wgt id='1292'> +7.9981057e+01 </wgt>
<wgt id='1293'> +7.9921005e+01 </wgt>
<wgt id='1294'> +7.9966481e+01 </wgt>
<wgt id='1295'> +7.9933705e+01 </wgt>
<wgt id='1296'> +7.9934185e+01 </wgt>
<wgt id='1297'> +8.0017127e+01 </wgt>
<wgt id='1298'> +7.9879342e+01 </wgt>
<wgt id='1299'> +7.9963358e+01 </wgt>
<wgt id='1300'> +7.9839716e+01 </wgt>
<wgt id='1301'> +7.9901152e+01 </wgt>
<wgt id='1302'> +7.9954512e+01 </wgt>
<wgt id='1303'> +7.9962575e+01 </wgt>
<wgt id='1304'> +7.9899251e+01 </wgt>
<wgt id='1305'> +7.9873369e+01 </wgt>
<wgt id='1306'> +7.9932206e+01 </wgt>
<wgt id='1307'> +7.9958545e+01 </wgt>
<wgt id='1308'> +7.9932846e+01 </wgt>
<wgt id='1309'> +7.9888387e+01 </wgt>
<wgt id='1310'> +7.9969972e+01 </wgt>
<wgt id='1311'> +7.9955689e+01 </wgt>
<wgt id='1312'> +7.9879591e+01 </wgt>
<wgt id='1313'> +7.9949963e+01 </wgt>
<wgt id='1314'> +7.9973325e+01 </wgt>
<wgt id='1315'> +7.9882284e+01 </wgt>
<wgt id='1316'> +7.9915874e+01 </wgt>
<wgt id='1317'> +7.7290191e+01 </wgt>
<wgt id='1318'> +8.3038745e+01 </wgt>
<wgt id='1319'> +7.6263155e+01 </wgt>
<wgt id='1320'> +8.0017171e+01 </wgt>
<wgt id='1321'> +8.0082594e+01 </wgt>
<wgt id='1322'> +8.0802642e+01 </wgt>
<wgt id='1323'> +8.0865944e+01 </wgt>
<wgt id='1324'> +8.1036660e+01 </wgt>
<wgt id='1325'> +7.9455274e+01 </wgt>
<wgt id='1326'> +8.0908186e+01 </wgt>
<wgt id='1327'> +7.9372124e+01 </wgt>
<wgt id='1328'> +8.2311431e+01 </wgt>
<wgt id='1329'> +7.8591062e+01 </wgt>
<wgt id='1330'> +8.2210365e+01 </wgt>
<wgt id='1331'> +8.1150416e+01 </wgt>
<wgt id='1332'> +7.9567393e+01 </wgt>
<wgt id='1333'> +7.8460200e+01 </wgt>
<wgt id='1334'> +8.0540623e+01 </wgt>
<wgt id='1335'> +8.0644147e+01 </wgt>
<wgt id='1336'> +7.8971188e+01 </wgt>
<wgt id='1337'> +8.1278691e+01 </wgt>
<wgt id='1338'> +7.8525104e+01 </wgt>
<wgt id='1339'> +8.1036912e+01 </wgt>
<wgt id='1340'> +7.8935303e+01 </wgt>
<wgt id='1341'> +8.0043551e+01 </wgt>
<wgt id='1342'> +7.9921916e+01 </wgt>
<wgt id='1343'> +7.9948993e+01 </wgt>
<wgt id='1344'> +8.0066115e+01 </wgt>
<wgt id='1345'> +7.9148425e+01 </wgt>
<wgt id='1346'> +8.0945388e+01 </wgt>
<wgt id='1347'> +7.9632252e+01 </wgt>
<wgt id='1348'> +8.0468756e+01 </wgt>
<wgt id='1349'> +7.9152799e+01 </wgt>
<wgt id='1350'> +8.0308718e+01 </wgt>
<wgt id='1351'> +8.0063951e+01 </wgt>
<wgt id='1352'> +7.9959663e+01 </wgt>
<wgt id='1353'> +8.0152727e+01 </wgt>
<wgt id='1354'> +7.9657865e+01 </wgt>
<wgt id='1355'> +7.9478290e+01 </wgt>
<wgt id='1356'> +8.0594415e+01 </wgt>
<wgt id='1357'> +8.0049464e+01 </wgt>
<wgt id='1358'> +7.9602118e+01 </wgt>
<wgt id='1359'> +7.9137894e+01 </wgt>
<wgt id='1360'> +8.0240493e+01 </wgt>
<wgt id='1361'> +8.1193211e+01 </wgt>
<wgt id='1362'> +7.8815690e+01 </wgt>
<wgt id='1363'> +8.0188229e+01 </wgt>
<wgt id='1364'> +7.9653993e+01 </wgt>
<wgt id='1365'> +8.0200744e+01 </wgt>
<wgt id='1366'> +8.0289391e+01 </wgt>
<wgt id='1367'> +8.0227762e+01 </wgt>
<wgt id='1368'> +8.0193665e+01 </wgt>
<wgt id='1369'> +8.0886756e+01 </wgt>
<wgt id='1370'> +8.0017849e+01 </wgt>
<wgt id='1371'> +7.9518772e+01 </wgt>
<wgt id='1372'> +8.0363856e+01 </wgt>
<wgt id='1373'> +8.0109069e+01 </wgt>
<wgt id='1374'> +7.9024122e+01 </wgt>
<wgt id='1375'> +7.7662445e+01 </wgt>
<wgt id='1376'> +8.1490558e+01 </wgt>
<wgt id='1377'> +7.6937488e+01 </wgt>
<wgt id='1378'> +8.3091927e+01 </wgt>
<wgt id='1379'> +8.3521103e+01 </wgt>
<wgt id='1380'> +8.0423336e+01 </wgt>
<wgt id='1381'> +8.6658441e+01 </wgt>
<wgt id='1382'> +7.1416630e+01 </wgt>
<wgt id='1383'> +7.5290342e+01 </wgt>
<wgt id='1384'> +8.1066498e+01 </wgt>
<wgt id='1385'> +8.1324816e+01 </wgt>
<wgt id='1386'> +8.1103108e+01 </wgt>
<wgt id='1387'> +8.1573172e+01 </wgt>
<wgt id='1388'> +8.1066315e+01 </wgt>
<wgt id='1389'> +8.1775294e+01 </wgt>
<wgt id='1390'> +8.1618425e+01 </wgt>
<wgt id='1391'> +8.0978132e+01 </wgt>
<wgt id='1392'> +8.1919087e+01 </wgt>
<wgt id='1393'> +8.0918389e+01 </wgt>
<wgt id='1394'> +8.1244927e+01 </wgt>
<wgt id='1395'> +8.1419712e+01 </wgt>
<wgt id='1396'> +8.1101410e+01 </wgt>
<wgt id='1397'> +8.1439251e+01 </wgt>
<wgt id='1398'> +8.0868512e+01 </wgt>
<wgt id='1399'> +8.1660282e+01 </wgt>
<wgt id='1400'> +8.1804080e+01 </wgt>
<wgt id='1401'> +8.0946495e+01 </wgt>
<wgt id='1402'> +8.1875772e+01 </wgt>
<wgt id='1403'> +8.1069510e+01 </wgt>
<wgt id='1404'> +7.9488557e+01 </wgt>
<wgt id='1405'> +8.2226957e+01 </wgt>
<wgt id='1406'> +8.0960500e+01 </wgt>
<wgt id='1407'> +8.1958115e+01 </wgt>
<wgt id='1408'> +8.1254477e+01 </wgt>
<wgt id='1409'> +8.1458935e+01 </wgt>
<wgt id='1410'> +8.1462489e+01 </wgt>
<wgt id='1411'> +8.0942033e+01 </wgt>
<wgt id='1412'> +8.1664222e+01 </wgt>
<wgt id='1413'> +8.0598394e+01 </wgt>
<wgt id='1414'> +8.1201578e+01 </wgt>
<wgt id='1415'> +8.1341191e+01 </wgt>
<wgt id='1416'> +8.1467383e+01 </wgt>
<wgt id='1417'> +8.1295572e+01 </wgt>
<wgt id='1418'> +8.1083202e+01 </wgt>
<wgt id='1419'> +8.1754168e+01 </wgt>
<wgt id='1420'> +8.1001464e+01 </wgt>
<wgt id='1421'> +8.1368083e+01 </wgt>
<wgt id='1422'> +8.1511250e+01 </wgt>
<wgt id='1423'> +8.1136558e+01 </wgt>
<wgt id='1424'> +8.1567342e+01 </wgt>
<wgt id='1425'> +8.0498411e+01 </wgt>
<wgt id='1426'> +8.1742121e+01 </wgt>
<wgt id='1427'> +8.1526531e+01 </wgt>
<wgt id='1428'> +8.1020729e+01 </wgt>
<wgt id='1429'> +8.0601416e+01 </wgt>
<wgt id='1430'> +8.1771613e+01 </wgt>
<wgt id='1431'> +8.1662929e+01 </wgt>
<wgt id='1432'> +8.1741202e+01 </wgt>
<wgt id='1433'> +8.1822125e+01 </wgt>
<wgt id='1434'> +8.1508939e+01 </wgt>
<wgt id='1435'> +8.1793324e+01 </wgt>
<wgt id='1436'> +7.3643216e+01 </wgt>
<wgt id='1437'> +7.3754496e+01 </wgt>
<wgt id='1438'> +7.3532745e+01 </wgt>
<wgt id='1439'> +7.3642297e+01 </wgt>
<wgt id='1440'> +7.3735345e+01 </wgt>
<wgt id='1441'> +7.3946198e+01 </wgt>
<wgt id='1442'> +7.3428257e+01 </wgt>
<wgt id='1443'> +7.3977853e+01 </wgt>
<wgt id='1444'> +7.3421241e+01 </wgt>
<wgt id='1445'> +7.2985618e+01 </wgt>
<wgt id='1446'> +7.3851787e+01 </wgt>
<wgt id='1447'> +7.3801161e+01 </wgt>
<wgt id='1448'> +7.3334857e+01 </wgt>
<wgt id='1449'> +7.3914447e+01 </wgt>
<wgt id='1450'> +7.3644232e+01 </wgt>
<wgt id='1451'> +7.3784246e+01 </wgt>
<wgt id='1452'> +7.3218548e+01 </wgt>
<wgt id='1453'> +7.3549435e+01 </wgt>
<wgt id='1454'> +7.3790951e+01 </wgt>
<wgt id='1455'> +7.3292706e+01 </wgt>
<wgt id='1456'> +7.3503138e+01 </wgt>
<wgt id='1457'> +7.3996120e+01 </wgt>
<wgt id='1458'> +7.3817040e+01 </wgt>
<wgt id='1459'> +7.3910776e+01 </wgt>
<wgt id='1460'> +7.3632724e+01 </wgt>
<wgt id='1461'> +7.4299724e+01 </wgt>
<wgt id='1462'> +7.3593913e+01 </wgt>
<wgt id='1463'> +7.3836744e+01 </wgt>
<wgt id='1464'> +7.3277161e+01 </wgt>
<wgt id='1465'> +8.4873002e+01 </wgt>
<wgt id='1466'> +7.6938603e+01 </wgt>
<wgt id='1467'> +7.6589002e+01 </wgt>
<wgt id='1468'> +7.5949157e+01 </wgt>
<wgt id='1469'> +7.8128684e+01 </wgt>
<wgt id='1470'> +7.6670024e+01 </wgt>
<wgt id='1471'> +7.7309080e+01 </wgt>
<wgt id='1472'> +7.6022149e+01 </wgt>
<wgt id='1473'> +7.7821893e+01 </wgt>
<wgt id='1474'> +7.7413161e+01 </wgt>
<wgt id='1475'> +7.6195364e+01 </wgt>
<wgt id='1476'> +7.6309426e+01 </wgt>
<wgt id='1477'> +7.6440962e+01 </wgt>
<wgt id='1478'> +7.6597570e+01 </wgt>
<wgt id='1479'> +7.8021876e+01 </wgt>
<wgt id='1480'> +7.6940227e+01 </wgt>
<wgt id='1481'> +7.6596816e+01 </wgt>
<wgt id='1482'> +7.6832239e+01 </wgt>
<wgt id='1483'> +7.6597371e+01 </wgt>
<wgt id='1484'> +7.7720218e+01 </wgt>
<wgt id='1485'> +7.6631766e+01 </wgt>
<wgt id='1486'> +7.7017670e+01 </wgt>
<wgt id='1487'> +7.6854309e+01 </wgt>
<wgt id='1488'> +7.6332077e+01 </wgt>
<wgt id='1489'> +7.7245752e+01 </wgt>
<wgt id='1490'> +7.6998186e+01 </wgt>
<wgt id='1491'> +7.7433380e+01 </wgt>
<wgt id='1492'> +7.6904365e+01 </wgt>
<wgt id='1493'> +7.6823195e+01 </wgt>
<wgt id='1494'> +7.7237588e+01 </wgt>
<wgt id='1495'> +7.6802202e+01 </wgt>
<wgt id='1496'> +7.6764136e+01 </wgt>
<wgt id='1497'> +7.6995261e+01 </wgt>
<wgt id='1498'> +7.6723728e+01 </wgt>
<wgt id='1499'> +7.6661232e+01 </wgt>
<wgt id='1500'> +7.6975630e+01 </wgt>
<wgt id='1501'> +7.7091784e+01 </wgt>
<wgt id='1502'> +7.6838633e+01 </wgt>
<wgt id='1503'> +7.6771770e+01 </wgt>
<wgt id='1504'> +7.7006859e+01 </wgt>
<wgt id='1505'> +7.7060563e+01 </wgt>
<wgt id='1506'> +7.7003815e+01 </wgt>
<wgt id='1507'> +7.7068841e+01 </wgt>
<wgt id='1508'> +7.6890540e+01 </wgt>
<wgt id='1509'> +7.6891766e+01 </wgt>
<wgt id='1510'> +7.7059822e+01 </wgt>
<wgt id='1511'> +7.6939866e+01 </wgt>
<wgt id='1512'> +7.6847264e+01 </wgt>
<wgt id='1513'> +7.6802877e+01 </wgt>
<wgt id='1514'> +7.6836816e+01 </wgt>
<wgt id='1515'> +7.6930128e+01 </wgt>
<wgt id='1516'> +7.6870158e+01 </wgt>
<wgt id='1517'> +7.6924070e+01 </wgt>
<wgt id='1518'> +7.6908575e+01 </wgt>
<wgt id='1519'> +7.6994045e+01 </wgt>
<wgt id='1520'> +7.6943457e+01 </wgt>
<wgt id='1521'> +7.6914140e+01 </wgt>
<wgt id='1522'> +7.7046081e+01 </wgt>
<wgt id='1523'> +7.6952902e+01 </wgt>
<wgt id='1524'> +7.6978647e+01 </wgt>
<wgt id='1525'> +7.6869794e+01 </wgt>
<wgt id='1526'> +7.6827545e+01 </wgt>
<wgt id='1527'> +7.6871005e+01 </wgt>
<wgt id='1528'> +7.6903135e+01 </wgt>
<wgt id='1529'> +7.6933324e+01 </wgt>
<wgt id='1530'> +7.6896080e+01 </wgt>
<wgt id='1531'> +7.6931546e+01 </wgt>
<wgt id='1532'> +7.6880724e+01 </wgt>
<wgt id='1533'> +7.6902732e+01 </wgt>
<wgt id='1534'> +7.6940504e+01 </wgt>
<wgt id='1535'> +7.6939134e+01 </wgt>
<wgt id='1536'> +7.6922697e+01 </wgt>
<wgt id='1537'> +7.6902913e+01 </wgt>
<wgt id='1538'> +7.6922500e+01 </wgt>
<wgt id='1539'> +7.6946843e+01 </wgt>
<wgt id='1540'> +7.6895982e+01 </wgt>
<wgt id='1541'> +7.6950761e+01 </wgt>
<wgt id='1542'> +7.6933637e+01 </wgt>
<wgt id='1543'> +7.6898353e+01 </wgt>
<wgt id='1544'> +7.6926873e+01 </wgt>
<wgt id='1545'> +7.7001677e+01 </wgt>
<wgt id='1546'> +7.6940956e+01 </wgt>
<wgt id='1547'> +7.6927993e+01 </wgt>
<wgt id='1548'> +7.6909607e+01 </wgt>
<wgt id='1549'> +7.6950595e+01 </wgt>
<wgt id='1550'> +7.6958394e+01 </wgt>
<wgt id='1551'> +7.6963512e+01 </wgt>
<wgt id='1552'> +7.6977412e+01 </wgt>
<wgt id='1553'> +7.6919384e+01 </wgt>
<wgt id='1554'> +7.6905496e+01 </wgt>
<wgt id='1555'> +7.6963299e+01 </wgt>
<wgt id='1556'> +7.6929338e+01 </wgt>
<wgt id='1557'> +7.6930756e+01 </wgt>
<wgt id='1558'> +7.6953975e+01 </wgt>
<wgt id='1559'> +7.6949037e+01 </wgt>
<wgt id='1560'> +7.6938605e+01 </wgt>
<wgt id='1561'> +7.6913066e+01 </wgt>
<wgt id='1562'> +7.6962088e+01 </wgt>
<wgt id='1563'> +7.6914805e+01 </wgt>
<wgt id='1564'> +7.6941705e+01 </wgt>
<wgt id='1565'> +7.6939576e+01 </wgt>
<wgt id='1566'> +7.6939580e+01 </wgt>
<wgt id='1567'> +7.4607136e+01 </wgt>
<wgt id='1568'> +7.9361276e+01 </wgt>
<wgt id='1569'> +8.1323287e+01 </wgt>
<wgt id='1570'> +8.1667586e+01 </wgt>
<wgt id='1571'> +8.0636918e+01 </wgt>
<wgt id='1572'> +8.2151789e+01 </wgt>
<wgt id='1573'> +8.2269467e+01 </wgt>
<wgt id='1574'> +8.1979379e+01 </wgt>
<wgt id='1575'> +8.2020543e+01 </wgt>
<wgt id='1576'> +8.1629155e+01 </wgt>
<wgt id='1577'> +8.1524912e+01 </wgt>
<wgt id='1578'> +8.1708809e+01 </wgt>
<wgt id='1579'> +8.1611385e+01 </wgt>
<wgt id='1580'> +8.1685438e+01 </wgt>
<wgt id='1581'> +8.0932898e+01 </wgt>
<wgt id='1582'> +8.1707459e+01 </wgt>
<wgt id='1583'> +8.0632826e+01 </wgt>
<wgt id='1584'> +8.0850452e+01 </wgt>
<wgt id='1585'> +8.1107729e+01 </wgt>
<wgt id='1586'> +8.1642849e+01 </wgt>
<wgt id='1587'> +8.1444957e+01 </wgt>
<wgt id='1588'> +8.0254838e+01 </wgt>
<wgt id='1589'> +8.1598484e+01 </wgt>
<wgt id='1590'> +8.1642869e+01 </wgt>
<wgt id='1591'> +8.1244553e+01 </wgt>
<wgt id='1592'> +8.1635432e+01 </wgt>
<wgt id='1593'> +8.1767940e+01 </wgt>
<wgt id='1594'> +8.1426266e+01 </wgt>
<wgt id='1595'> +8.1164351e+01 </wgt>
<wgt id='1596'> +8.1390468e+01 </wgt>
<wgt id='1597'> +8.1502536e+01 </wgt>
<wgt id='1598'> +8.1428657e+01 </wgt>
<wgt id='1599'> +8.1496750e+01 </wgt>
<wgt id='1600'> +8.1643118e+01 </wgt>
<wgt id='1601'> +8.1621371e+01 </wgt>
<wgt id='1602'> +8.1692218e+01 </wgt>
<wgt id='1603'> +8.1603746e+01 </wgt>
<wgt id='1604'> +8.1169627e+01 </wgt>
<wgt id='1605'> +8.1431500e+01 </wgt>
<wgt id='1606'> +8.1273867e+01 </wgt>
<wgt id='1607'> +8.1401338e+01 </wgt>
<wgt id='1608'> +8.1280144e+01 </wgt>
<wgt id='1609'> +8.1308919e+01 </wgt>
<wgt id='1610'> +8.1390808e+01 </wgt>
<wgt id='1611'> +8.1410590e+01 </wgt>
<wgt id='1612'> +8.1113921e+01 </wgt>
<wgt id='1613'> +8.1385644e+01 </wgt>
<wgt id='1614'> +8.1188480e+01 </wgt>
<wgt id='1615'> +8.1383410e+01 </wgt>
<wgt id='1616'> +8.1318404e+01 </wgt>
<wgt id='1617'> +8.1505441e+01 </wgt>
<wgt id='1618'> +8.1239025e+01 </wgt>
<wgt id='1619'> +8.1396893e+01 </wgt>
<wgt id='1620'> +8.1337919e+01 </wgt>
<wgt id='1621'> +8.1220840e+01 </wgt>
<wgt id='1622'> +8.1395143e+01 </wgt>
<wgt id='1623'> +8.1289973e+01 </wgt>
<wgt id='1624'> +8.1374338e+01 </wgt>
<wgt id='1625'> +8.1348708e+01 </wgt>
<wgt id='1626'> +8.1246963e+01 </wgt>
<wgt id='1627'> +8.1284431e+01 </wgt>
<wgt id='1628'> +8.1322610e+01 </wgt>
<wgt id='1629'> +8.1253995e+01 </wgt>
<wgt id='1630'> +8.1369716e+01 </wgt>
<wgt id='1631'> +8.1319569e+01 </wgt>
<wgt id='1632'> +8.1370329e+01 </wgt>
<wgt id='1633'> +8.1209916e+01 </wgt>
<wgt id='1634'> +8.1353599e+01 </wgt>
<wgt id='1635'> +8.1360908e+01 </wgt>
<wgt id='1636'> +8.1357760e+01 </wgt>
<wgt id='1637'> +8.1370962e+01 </wgt>
<wgt id='1638'> +8.1356611e+01 </wgt>
<wgt id='1639'> +8.1331745e+01 </wgt>
<wgt id='1640'> +8.1363165e+01 </wgt>
<wgt id='1641'> +8.1355584e+01 </wgt>
<wgt id='1642'> +8.1335132e+01 </wgt>
<wgt id='1643'> +8.1320056e+01 </wgt>
<wgt id='1644'> +8.1290004e+01 </wgt>
<wgt id='1645'> +8.1266533e+01 </wgt>
<wgt id='1646'> +8.1367315e+01 </wgt>
<wgt id='1647'> +8.1309038e+01 </wgt>
<wgt id='1648'> +8.1352504e+01 </wgt>
<wgt id='1649'> +8.1366376e+01 </wgt>
<wgt id='1650'> +8.1331288e+01 </wgt>
<wgt id='1651'> +8.1336499e+01 </wgt>
<wgt id='1652'> +8.1326046e+01 </wgt>
<wgt id='1653'> +8.1325700e+01 </wgt>
<wgt id='1654'> +8.1308729e+01 </wgt>
<wgt id='1655'> +8.1356897e+01 </wgt>
<wgt id='1656'> +8.1276347e+01 </wgt>
<wgt id='1657'> +8.1330769e+01 </wgt>
<wgt id='1658'> +8.1331757e+01 </wgt>
<wgt id='1659'> +8.1365831e+01 </wgt>
<wgt id='1660'> +8.1278010e+01 </wgt>
<wgt id='1661'> +8.1323903e+01 </wgt>
<wgt id='1662'> +8.1300010e+01 </wgt>
<wgt id='1663'> +8.1339822e+01 </wgt>
<wgt id='1664'> +8.1315504e+01 </wgt>
<wgt id='1665'> +8.1293147e+01 </wgt>
<wgt id='1666'> +8.1326664e+01 </wgt>
<wgt id='1667'> +8.1328292e+01 </wgt>
<wgt id='1668'> +8.1327155e+01 </wgt>
<wgt id='1669'> +8.1316780e+01 </wgt>
<wgt id='1670'> +7.8881955e+01 </wgt>
<wgt id='1671'> +8.3694461e+01 </wgt>
<wgt id='1672'> +7.6997344e+01 </wgt>
<wgt id='1673'> +7.5954603e+01 </wgt>
<wgt id='1674'> +7.6166907e+01 </wgt>
<wgt id='1675'> +7.6969634e+01 </wgt>
<wgt id='1676'> +7.8964493e+01 </wgt>
<wgt id='1677'> +7.7205219e+01 </wgt>
<wgt id='1678'> +7.6649465e+01 </wgt>
<wgt id='1679'> +7.6988834e+01 </wgt>
<wgt id='1680'> +7.7162413e+01 </wgt>
<wgt id='1681'> +7.7297771e+01 </wgt>
<wgt id='1682'> +7.6915807e+01 </wgt>
<wgt id='1683'> +7.6286454e+01 </wgt>
<wgt id='1684'> +7.7493433e+01 </wgt>
<wgt id='1685'> +7.6939635e+01 </wgt>
<wgt id='1686'> +7.6951315e+01 </wgt>
<wgt id='1687'> +7.7266643e+01 </wgt>
<wgt id='1688'> +7.7250799e+01 </wgt>
<wgt id='1689'> +7.6139992e+01 </wgt>
<wgt id='1690'> +7.7026370e+01 </wgt>
<wgt id='1691'> +7.7288815e+01 </wgt>
<wgt id='1692'> +7.7479201e+01 </wgt>
<wgt id='1693'> +7.6706385e+01 </wgt>
<wgt id='1694'> +7.6751573e+01 </wgt>
<wgt id='1695'> +7.7077009e+01 </wgt>
<wgt id='1696'> +7.6630133e+01 </wgt>
<wgt id='1697'> +7.7157839e+01 </wgt>
<wgt id='1698'> +7.6859287e+01 </wgt>
<wgt id='1699'> +7.7128955e+01 </wgt>
<wgt id='1700'> +7.6763957e+01 </wgt>
<wgt id='1701'> +7.6508372e+01 </wgt>
<wgt id='1702'> +7.7092989e+01 </wgt>
<wgt id='1703'> +7.4607136e+01 </wgt>
<wgt id='1704'> +7.9361276e+01 </wgt>
<wgt id='1705'> +8.1333159e+01 </wgt>
<wgt id='1706'> +8.1618057e+01 </wgt>
<wgt id='1707'> +8.1222501e+01 </wgt>
<wgt id='1708'> +8.1359043e+01 </wgt>
<wgt id='1709'> +7.8975653e+01 </wgt>
<wgt id='1710'> +8.0779830e+01 </wgt>
<wgt id='1711'> +8.1342495e+01 </wgt>
<wgt id='1712'> +8.1308033e+01 </wgt>
<wgt id='1713'> +8.1231306e+01 </wgt>
<wgt id='1714'> +8.0997861e+01 </wgt>
<wgt id='1715'> +8.1526927e+01 </wgt>
<wgt id='1716'> +8.1333342e+01 </wgt>
<wgt id='1717'> +8.1306652e+01 </wgt>
<wgt id='1718'> +8.1366788e+01 </wgt>
<wgt id='1719'> +8.1305741e+01 </wgt>
<wgt id='1720'> +8.1219906e+01 </wgt>
<wgt id='1721'> +8.1254305e+01 </wgt>
<wgt id='1722'> +8.0995414e+01 </wgt>
<wgt id='1723'> +8.1378022e+01 </wgt>
<wgt id='1724'> +8.1437618e+01 </wgt>
<wgt id='1725'> +8.0719253e+01 </wgt>
<wgt id='1726'> +8.1314342e+01 </wgt>
<wgt id='1727'> +8.1518014e+01 </wgt>
<wgt id='1728'> +8.1314800e+01 </wgt>
<wgt id='1729'> +8.1379415e+01 </wgt>
<wgt id='1730'> +8.1393630e+01 </wgt>
<wgt id='1731'> +8.1504273e+01 </wgt>
<wgt id='1732'> +8.1434622e+01 </wgt>
<wgt id='1733'> +8.1426901e+01 </wgt>
<wgt id='1734'> +8.1391439e+01 </wgt>
<wgt id='1735'> +8.1588995e+01 </wgt>
<wgt id='1736'> +7.8881955e+01 </wgt>
<wgt id='1737'> +8.3694461e+01 </wgt>
<wgt id='1738'> +8.6457178e+01 </wgt>
<wgt id='1739'> +8.6600809e+01 </wgt>
<wgt id='1740'> +8.6314643e+01 </wgt>
<wgt id='1741'> +8.6486451e+01 </wgt>
<wgt id='1742'> +8.6427617e+01 </wgt>
<wgt id='1743'> +8.6366216e+01 </wgt>
<wgt id='1744'> +8.6547250e+01 </wgt>
<wgt id='1745'> +8.6176535e+01 </wgt>
<wgt id='1746'> +8.6727941e+01 </wgt>
<wgt id='1747'> +8.6943823e+01 </wgt>
<wgt id='1748'> +8.5969900e+01 </wgt>
<wgt id='1749'> +8.6613019e+01 </wgt>
<wgt id='1750'> +8.6231167e+01 </wgt>
<wgt id='1751'> +8.6218169e+01 </wgt>
<wgt id='1752'> +8.6688868e+01 </wgt>
<wgt id='1753'> +8.6303980e+01 </wgt>
<wgt id='1754'> +8.6819265e+01 </wgt>
<wgt id='1755'> +8.6166508e+01 </wgt>
<wgt id='1756'> +8.6559912e+01 </wgt>
<wgt id='1757'> +8.6401252e+01 </wgt>
<wgt id='1758'> +8.6587285e+01 </wgt>
<wgt id='1759'> +8.6751596e+01 </wgt>
<wgt id='1760'> +8.6090334e+01 </wgt>
<wgt id='1761'> +8.5841663e+01 </wgt>
<wgt id='1762'> +8.6775298e+01 </wgt>
<wgt id='1763'> +8.7031234e+01 </wgt>
<wgt id='1764'> +8.5968055e+01 </wgt>
<wgt id='1765'> +8.6008457e+01 </wgt>
<wgt id='1766'> +8.6750819e+01 </wgt>
<wgt id='1767'> +8.6457178e+01 </wgt>
<wgt id='1768'> +8.7084457e+01 </wgt>
<wgt id='1769'> +8.5665359e+01 </wgt>
<wgt id='1770'> +8.7168084e+01 </wgt>
<wgt id='1771'> +8.5918827e+01 </wgt>
<wgt id='1772'> +8.7186265e+01 </wgt>
<wgt id='1773'> +8.6040102e+01 </wgt>
<wgt id='1774'> +8.6322763e+01 </wgt>
<wgt id='1775'> +8.6606203e+01 </wgt>
<wgt id='1776'> +8.5764710e+01 </wgt>
<wgt id='1777'> +8.7179742e+01 </wgt>
<wgt id='1778'> +8.6359154e+01 </wgt>
<wgt id='1779'> +8.7256260e+01 </wgt>
<wgt id='1780'> +8.6743890e+01 </wgt>
<wgt id='1781'> +9.0313775e+01 </wgt>
<wgt id='1782'> +9.0487850e+01 </wgt>
<wgt id='1783'> +9.0181675e+01 </wgt>
<wgt id='1784'> +9.0397882e+01 </wgt>
<wgt id='1785'> +9.0270443e+01 </wgt>
<wgt id='1786'> +9.0273668e+01 </wgt>
<wgt id='1787'> +9.0394147e+01 </wgt>
<wgt id='1788'> +8.9950159e+01 </wgt>
<wgt id='1789'> +9.0701085e+01 </wgt>
<wgt id='1790'> +9.0721645e+01 </wgt>
<wgt id='1791'> +8.9934229e+01 </wgt>
<wgt id='1792'> +9.0495265e+01 </wgt>
<wgt id='1793'> +9.0170816e+01 </wgt>
<wgt id='1794'> +8.9975652e+01 </wgt>
<wgt id='1795'> +9.0703102e+01 </wgt>
<wgt id='1796'> +9.0336363e+01 </wgt>
<wgt id='1797'> +9.0628261e+01 </wgt>
<wgt id='1798'> +9.0445952e+01 </wgt>
<wgt id='1799'> +9.0203459e+01 </wgt>
<wgt id='1800'> +9.0447218e+01 </wgt>
<wgt id='1801'> +9.0210974e+01 </wgt>
<wgt id='1802'> +8.9630726e+01 </wgt>
<wgt id='1803'> +9.0954255e+01 </wgt>
<wgt id='1804'> +9.0666140e+01 </wgt>
<wgt id='1805'> +8.9997547e+01 </wgt>
<wgt id='1806'> +8.9895748e+01 </wgt>
<wgt id='1807'> +9.0550025e+01 </wgt>
<wgt id='1808'> +8.9967713e+01 </wgt>
<wgt id='1809'> +9.0505674e+01 </wgt>
<wgt id='1810'> +9.0197651e+01 </wgt>
<wgt id='1811'> +9.0940532e+01 </wgt>
<wgt id='1812'> +8.9230679e+01 </wgt>
<wgt id='1813'> +9.0999571e+01 </wgt>
<wgt id='1814'> +8.9545475e+01 </wgt>
<wgt id='1815'> +9.0752293e+01 </wgt>
<wgt id='1816'> +8.9121416e+01 </wgt>
<wgt id='1817'> +9.0061064e+01 </wgt>
<wgt id='1818'> +9.0591904e+01 </wgt>
<wgt id='1819'> +8.8448390e+01 </wgt>
<wgt id='1820'> +9.1044227e+01 </wgt>
<wgt id='1821'> +8.8790637e+01 </wgt>
<wgt id='1822'> +9.1902156e+01 </wgt>
<wgt id='1823'> +8.9057885e+01 </wgt>
<wgt id='1824'> +7.9301816e+01 </wgt>
<wgt id='1825'> +7.9281204e+01 </wgt>
<wgt id='1826'> +7.9260440e+01 </wgt>
<wgt id='1827'> +7.9240197e+01 </wgt>
<wgt id='1828'> +7.9219549e+01 </wgt>
<wgt id='1829'> +7.9198883e+01 </wgt>
<wgt id='1830'> +7.9178296e+01 </wgt>
<wgt id='1831'> +7.9157562e+01 </wgt>
<wgt id='1832'> +7.9136947e+01 </wgt>
<wgt id='1833'> +7.9116294e+01 </wgt>
<wgt id='1834'> +7.9095718e+01 </wgt>
<wgt id='1835'> +7.9075385e+01 </wgt>
<wgt id='1836'> +7.9054770e+01 </wgt>
<wgt id='1837'> +7.9034099e+01 </wgt>
<wgt id='1838'> +7.9013465e+01 </wgt>
<wgt id='1839'> +7.8992855e+01 </wgt>
<wgt id='1840'> +7.8972251e+01 </wgt>
<wgt id='1841'> +7.8951617e+01 </wgt>
<wgt id='1842'> +7.8931249e+01 </wgt>
<wgt id='1843'> +7.8910688e+01 </wgt>
<wgt id='1844'> +7.8890048e+01 </wgt>
<wgt id='1845'> +7.8869456e+01 </wgt>
<wgt id='1846'> +7.8848887e+01 </wgt>
<wgt id='1847'> +7.8828139e+01 </wgt>
<wgt id='1848'> +7.8807582e+01 </wgt>
<wgt id='1849'> +7.8786926e+01 </wgt>
<wgt id='1850'> +7.8766709e+01 </wgt>
<wgt id='1851'> +7.8746131e+01 </wgt>
<wgt id='1852'> +7.8725527e+01 </wgt>
<wgt id='1853'> +7.8704842e+01 </wgt>
<wgt id='1854'> +7.8684288e+01 </wgt>
<wgt id='1855'> +8.0994038e+01 </wgt>
<wgt id='1856'> +8.1322750e+01 </wgt>
<wgt id='1857'> +8.0305829e+01 </wgt>
<wgt id='1858'> +8.1821592e+01 </wgt>
<wgt id='1859'> +8.1934338e+01 </wgt>
<wgt id='1860'> +8.1647967e+01 </wgt>
<wgt id='1861'> +8.1699777e+01 </wgt>
<wgt id='1862'> +8.1307876e+01 </wgt>
<wgt id='1863'> +8.1195452e+01 </wgt>
<wgt id='1864'> +8.1380681e+01 </wgt>
<wgt id='1865'> +8.1277455e+01 </wgt>
<wgt id='1866'> +8.1370233e+01 </wgt>
<wgt id='1867'> +8.0613358e+01 </wgt>
<wgt id='1868'> +8.1383604e+01 </wgt>
<wgt id='1869'> +8.0303980e+01 </wgt>
<wgt id='1870'> +8.0502035e+01 </wgt>
<wgt id='1871'> +8.0794697e+01 </wgt>
<wgt id='1872'> +8.1306075e+01 </wgt>
<wgt id='1873'> +8.1112170e+01 </wgt>
<wgt id='1874'> +7.9938024e+01 </wgt>
<wgt id='1875'> +8.1279379e+01 </wgt>
<wgt id='1876'> +8.1306347e+01 </wgt>
<wgt id='1877'> +8.0912950e+01 </wgt>
<wgt id='1878'> +8.1309954e+01 </wgt>
<wgt id='1879'> +8.1430660e+01 </wgt>
<wgt id='1880'> +8.1085514e+01 </wgt>
<wgt id='1881'> +8.0825289e+01 </wgt>
<wgt id='1882'> +8.1072880e+01 </wgt>
<wgt id='1883'> +8.1177401e+01 </wgt>
<wgt id='1884'> +8.1092947e+01 </wgt>
<wgt id='1885'> +8.1161691e+01 </wgt>
<wgt id='1886'> +8.1325472e+01 </wgt>
<wgt id='1887'> +8.1286592e+01 </wgt>
<wgt id='1888'> +8.1356665e+01 </wgt>
<wgt id='1889'> +8.1273555e+01 </wgt>
<wgt id='1890'> +8.0837839e+01 </wgt>
<wgt id='1891'> +8.1102712e+01 </wgt>
<wgt id='1892'> +8.0945023e+01 </wgt>
<wgt id='1893'> +8.1070920e+01 </wgt>
<wgt id='1894'> +8.0946439e+01 </wgt>
<wgt id='1895'> +8.0979323e+01 </wgt>
<wgt id='1896'> +8.1057879e+01 </wgt>
<wgt id='1897'> +8.1078902e+01 </wgt>
<wgt id='1898'> +8.0792084e+01 </wgt>
<wgt id='1899'> +8.1055134e+01 </wgt>
<wgt id='1900'> +8.0858868e+01 </wgt>
<wgt id='1901'> +8.1057403e+01 </wgt>
<wgt id='1902'> +8.0987040e+01 </wgt>
<wgt id='1903'> +8.1176883e+01 </wgt>
<wgt id='1904'> +8.0908674e+01 </wgt>
<wgt id='1905'> +8.1068175e+01 </wgt>
<wgt id='1906'> +8.1007529e+01 </wgt>
<wgt id='1907'> +8.0892045e+01 </wgt>
<wgt id='1908'> +8.1065473e+01 </wgt>
<wgt id='1909'> +8.0961592e+01 </wgt>
<wgt id='1910'> +8.1046509e+01 </wgt>
<wgt id='1911'> +8.1015418e+01 </wgt>
<wgt id='1912'> +8.0918366e+01 </wgt>
<wgt id='1913'> +8.0958636e+01 </wgt>
<wgt id='1914'> +8.0995679e+01 </wgt>
<wgt id='1915'> +8.0927499e+01 </wgt>
<wgt id='1916'> +8.1040463e+01 </wgt>
<wgt id='1917'> +8.0990437e+01 </wgt>
<wgt id='1918'> +8.1039119e+01 </wgt>
<wgt id='1919'> +8.0882713e+01 </wgt>
<wgt id='1920'> +8.1023215e+01 </wgt>
<wgt id='1921'> +8.1030303e+01 </wgt>
<wgt id='1922'> +8.1026208e+01 </wgt>
<wgt id='1923'> +8.1041579e+01 </wgt>
<wgt id='1924'> +8.1025139e+01 </wgt>
<wgt id='1925'> +8.1001664e+01 </wgt>
<wgt id='1926'> +8.1034882e+01 </wgt>
<wgt id='1927'> +8.1025588e+01 </wgt>
<wgt id='1928'> +8.1003580e+01 </wgt>
<wgt id='1929'> +8.0990348e+01 </wgt>
<wgt id='1930'> +8.0961615e+01 </wgt>
<wgt id='1931'> +8.0940583e+01 </wgt>
<wgt id='1932'> +8.1038579e+01 </wgt>
<wgt id='1933'> +8.0980752e+01 </wgt>
<wgt id='1934'> +8.1023264e+01 </wgt>
<wgt id='1935'> +8.1034638e+01 </wgt>
<wgt id='1936'> +8.1004725e+01 </wgt>
<wgt id='1937'> +8.1008298e+01 </wgt>
<wgt id='1938'> +8.0997375e+01 </wgt>
<wgt id='1939'> +8.0995633e+01 </wgt>
<wgt id='1940'> +8.0979521e+01 </wgt>
<wgt id='1941'> +8.1029932e+01 </wgt>
<wgt id='1942'> +8.0945833e+01 </wgt>
<wgt id='1943'> +8.1000036e+01 </wgt>
<wgt id='1944'> +8.1001159e+01 </wgt>
<wgt id='1945'> +8.1035779e+01 </wgt>
<wgt id='1946'> +8.0947980e+01 </wgt>
<wgt id='1947'> +8.0993679e+01 </wgt>
<wgt id='1948'> +8.0971887e+01 </wgt>
<wgt id='1949'> +8.1008340e+01 </wgt>
<wgt id='1950'> +8.0986397e+01 </wgt>
<wgt id='1951'> +8.0965106e+01 </wgt>
<wgt id='1952'> +8.0998010e+01 </wgt>
<wgt id='1953'> +8.0998191e+01 </wgt>
<wgt id='1954'> +8.0999361e+01 </wgt>
<wgt id='1955'> +8.0988352e+01 </wgt>
<wgt id='1956'> +8.0993834e+01 </wgt>
<wgt id='1957'> +8.0995117e+01 </wgt>
<wgt id='1958'> +8.0994236e+01 </wgt>
<wgt id='1959'> +8.0994282e+01 </wgt>
<wgt id='1960'> +8.0994644e+01 </wgt>
<wgt id='1961'> +8.0994122e+01 </wgt>
<wgt id='1962'> +8.0995248e+01 </wgt>
</rwgt>
</event>
<event npLO=" -1 " npNLO=" 0 ">
 6      0 +1.5146096e+02 2.80586760e+01 7.54677110e-03 1.18013420e-01
       -2 -1    0    0    0  501 +0.0000000000e+00 +0.0000000000e+00 +1.7614084000e+01 1.7614084000e+01 0.0000000000e+00 0.0000e+00 9.0000e+00
        2 -1    0    0  501    0 +0.0000000000e+00 +0.0000000000e+00 -1.1718164000e+02 1.1718164000e+02 0.0000000000e+00 0.0000e+00 9.0000e+00
       23  2    1    2    0    0 +1.7763568000e-15 +0.0000000000e+00 -9.9567555000e+01 1.3479572000e+02 9.0863573000e+01 0.0000e+00 0.0000e+00
       13  1    3    3    0    0 +1.3776027000e+01 +4.1043138000e+01 -7.0055836000e+01 8.2353738000e+01 0.0000000000e+00 0.0000e+00 9.0000e+00
      -13  1    3    3    0    0 -6.4001460000e+00 -2.1091026000e+01 -1.3928094000e+01 2.6072688000e+01 0.0000000000e+00 0.0000e+00 9.0000e+00
       22  1    3    3    0    0 -7.3758812000e+00 -1.9952113000e+01 -1.5583626000e+01 2.6369297000e+01 0.0000000000e+00 0.0000e+00 9.0000e+00
#aMCatNLO 1  0  0  2  1 0.73903352E+01 0.00000000E+00 -9  6  0 0.00000000E+00 0.00000000E+00 0.00000000E+00 0.00000000E+00 0.00000000E+00
<rwgt>
<wgt id='1001'> +1.5146000e+02 </wgt>
<wgt id='1002'> +1.5146000e+02 </wgt>
<wgt id='1003'> +1.4105000e+02 </wgt>
<wgt id='1004'> +1.5508000e+02 </wgt>
<wgt id='1005'> +1.5466000e+02 </wgt>
<wgt id='1006'> +1.5369000e+02 </wgt>
<wgt id='1007'> +1.4434000e+02 </wgt>
<wgt id='1008'> +1.5075000e+02 </wgt>
<wgt id='1009'> +1.5166000e+02 </wgt>
<wgt id='1010'> +1.4283000e+02 </wgt>
<wgt id='1011'> +1.4833000e+02 </wgt>
<wgt id='1012'> +1.4485000e+02 </wgt>
<wgt id='1013'> +1.5468000e+02 </wgt>
<wgt id='1014'> +1.5010000e+02 </wgt>
<wgt id='1015'> +1.5572000e+02 </wgt>
<wgt id='1016'> +1.5409000e+02 </wgt>
<wgt id='1017'> +1.5099000e+02 </wgt>
<wgt id='1018'> +1.4637000e+02 </wgt>
<wgt id='1019'> +1.5142000e+02 </wgt>
<wgt id='1020'> +1.4385000e+02 </wgt>
<wgt id='1021'> +1.5308000e+02 </wgt>
<wgt id='1022'> +1.5237000e+02 </wgt>
<wgt id='1023'> +1.5579000e+02 </wgt>
<wgt id='1024'> +1.4794000e+02 </wgt>
<wgt id='1025'> +1.5495000e+02 </wgt>
<wgt id='1026'> +1.5953000e+02 </wgt>
<wgt id='1027'> +1.5410000e+02 </wgt>
<wgt id='1028'> +1.4805000e+02 </wgt>
<wgt id='1029'> +1.5114000e+02 </wgt>
<wgt id='1030'> +1.5864000e+02 </wgt>
<wgt id='1031'> +1.5276000e+02 </wgt>
<wgt id='1032'> +1.5316000e+02 </wgt>
<wgt id='1033'> +1.5729000e+02 </wgt>
<wgt id='1034'> +1.4361000e+02 </wgt>
<wgt id='1035'> +1.5223000e+02 </wgt>
<wgt id='1036'> +1.5071000e+02 </wgt>
<wgt id='1037'> +1.5443000e+02 </wgt>
<wgt id='1038'> +1.5235000e+02 </wgt>
<wgt id='1039'> +1.4922000e+02 </wgt>
<wgt id='1040'> +1.3943000e+02 </wgt>
<wgt id='1041'> +1.5383000e+02 </wgt>
<wgt id='1042'> +1.5259000e+02 </wgt>
<wgt id='1043'> +1.5624000e+02 </wgt>
<wgt id='1044'> +1.5688000e+02 </wgt>
<wgt id='1045'> +1.5270000e+02 </wgt>
<wgt id='1046'> +1.4737000e+02 </wgt>
<wgt id='1047'> +1.5166000e+02 </wgt>
<wgt id='1048'> +1.5348000e+02 </wgt>
<wgt id='1049'> +1.4688000e+02 </wgt>
<wgt id='1050'> +1.5039000e+02 </wgt>
<wgt id='1051'> +1.5027000e+02 </wgt>
<wgt id='1052'> +1.5520000e+02 </wgt>
<wgt id='1053'> +1.5591000e+02 </wgt>
<wgt id='1054'> +1.5083000e+02 </wgt>
<wgt id='1055'> +1.4943000e+02 </wgt>
<wgt id='1056'> +1.5313000e+02 </wgt>
<wgt id='1057'> +1.5285000e+02 </wgt>
<wgt id='1058'> +1.4741000e+02 </wgt>
<wgt id='1059'> +1.5497000e+02 </wgt>
<wgt id='1060'> +1.5483000e+02 </wgt>
<wgt id='1061'> +1.5491000e+02 </wgt>
<wgt id='1062'> +1.5100000e+02 </wgt>
<wgt id='1063'> +1.5041000e+02 </wgt>
<wgt id='1064'> +1.5355000e+02 </wgt>
<wgt id='1065'> +1.5930000e+02 </wgt>
<wgt id='1066'> +1.4018000e+02 </wgt>
<wgt id='1067'> +1.5274000e+02 </wgt>
<wgt id='1068'> +1.5482000e+02 </wgt>
<wgt id='1069'> +1.4666000e+02 </wgt>
<wgt id='1070'> +1.5225000e+02 </wgt>
<wgt id='1071'> +1.5341000e+02 </wgt>
<wgt id='1072'> +1.4901000e+02 </wgt>
<wgt id='1073'> +1.5235000e+02 </wgt>
<wgt id='1074'> +1.4828000e+02 </wgt>
<wgt id='1075'> +1.3985000e+02 </wgt>
<wgt id='1076'> +1.5853000e+02 </wgt>
<wgt id='1077'> +1.5551000e+02 </wgt>
<wgt id='1078'> +1.4985000e+02 </wgt>
<wgt id='1079'> +1.5054000e+02 </wgt>
<wgt id='1080'> +1.5041000e+02 </wgt>
<wgt id='1081'> +1.4948000e+02 </wgt>
<wgt id='1082'> +1.5143000e+02 </wgt>
<wgt id='1083'> +1.5437000e+02 </wgt>
<wgt id='1084'> +1.5579000e+02 </wgt>
<wgt id='1085'> +1.4825000e+02 </wgt>
<wgt id='1086'> +1.5144000e+02 </wgt>
<wgt id='1087'> +1.5594000e+02 </wgt>
<wgt id='1088'> +1.5202000e+02 </wgt>
<wgt id='1089'> +1.5652000e+02 </wgt>
<wgt id='1090'> +1.5290000e+02 </wgt>
<wgt id='1091'> +1.4761000e+02 </wgt>
<wgt id='1092'> +1.5691000e+02 </wgt>
<wgt id='1093'> +1.5065000e+02 </wgt>
<wgt id='1094'> +1.4563000e+02 </wgt>
<wgt id='1095'> +1.4935000e+02 </wgt>
<wgt id='1096'> +1.5416000e+02 </wgt>
<wgt id='1097'> +1.5058000e+02 </wgt>
<wgt id='1098'> +1.5016000e+02 </wgt>
<wgt id='1099'> +1.5050000e+02 </wgt>
<wgt id='1100'> +1.5688000e+02 </wgt>
<wgt id='1101'> +1.5076000e+02 </wgt>
<wgt id='1102'> +1.4980000e+02 </wgt>
<wgt id='1103'> +1.4989000e+02 </wgt>
<wgt id='1104'> +1.5223000e+02 </wgt>
<wgt id='1105'> +1.5146096e+02 </wgt>
<wgt id='1106'> +7.4721529e+01 </wgt>
<wgt id='1107'> +7.6977084e+01 </wgt>
<wgt id='1108'> +9.1843824e+01 </wgt>
<wgt id='1109'> +9.0017306e+01 </wgt>
<wgt id='1110'> +9.4102834e+01 </wgt>
<wgt id='1111'> +6.2098049e+01 </wgt>
<wgt id='1112'> +6.1613920e+01 </wgt>
<wgt id='1113'> +6.2694909e+01 </wgt>
<wgt id='1114'> +8.4903791e+01 </wgt>
<wgt id='1115'> +9.2991655e+01 </wgt>
<wgt id='1116'> +8.2438868e+01 </wgt>
<wgt id='1117'> +8.0504807e+01 </wgt>
<wgt id='1118'> +8.2417166e+01 </wgt>
<wgt id='1119'> +8.4227274e+01 </wgt>
<wgt id='1120'> +8.5354769e+01 </wgt>
<wgt id='1121'> +8.3658290e+01 </wgt>
<wgt id='1122'> +8.2712517e+01 </wgt>
<wgt id='1123'> +7.9356570e+01 </wgt>
<wgt id='1124'> +8.4347605e+01 </wgt>
<wgt id='1125'> +8.6770849e+01 </wgt>
<wgt id='1126'> +8.0977894e+01 </wgt>
<wgt id='1127'> +8.4810258e+01 </wgt>
<wgt id='1128'> +8.7370203e+01 </wgt>
<wgt id='1129'> +8.3430526e+01 </wgt>
<wgt id='1130'> +8.5070843e+01 </wgt>
<wgt id='1131'> +8.7194013e+01 </wgt>
<wgt id='1132'> +8.3816378e+01 </wgt>
<wgt id='1133'> +8.5126947e+01 </wgt>
<wgt id='1134'> +8.0965175e+01 </wgt>
<wgt id='1135'> +8.2219348e+01 </wgt>
<wgt id='1136'> +8.5063678e+01 </wgt>
<wgt id='1137'> +8.6534054e+01 </wgt>
<wgt id='1138'> +8.3335326e+01 </wgt>
<wgt id='1139'> +7.9844041e+01 </wgt>
<wgt id='1140'> +8.9047551e+01 </wgt>
<wgt id='1141'> +8.8172310e+01 </wgt>
<wgt id='1142'> +8.4399558e+01 </wgt>
<wgt id='1143'> +8.7585728e+01 </wgt>
<wgt id='1144'> +8.4654164e+01 </wgt>
<wgt id='1145'> +8.7310511e+01 </wgt>
<wgt id='1146'> +8.0931795e+01 </wgt>
<wgt id='1147'> +8.3818472e+01 </wgt>
<wgt id='1148'> +8.3943113e+01 </wgt>
<wgt id='1149'> +8.7723565e+01 </wgt>
<wgt id='1150'> +8.4091383e+01 </wgt>
<wgt id='1151'> +8.4233525e+01 </wgt>
<wgt id='1152'> +8.2183112e+01 </wgt>
<wgt id='1153'> +8.3255528e+01 </wgt>
<wgt id='1154'> +8.5824959e+01 </wgt>
<wgt id='1155'> +8.5820548e+01 </wgt>
<wgt id='1156'> +8.6475557e+01 </wgt>
<wgt id='1157'> +8.7512514e+01 </wgt>
<wgt id='1158'> +8.7226590e+01 </wgt>
<wgt id='1159'> +8.6662995e+01 </wgt>
<wgt id='1160'> +8.7806520e+01 </wgt>
<wgt id='1161'> +8.5175543e+01 </wgt>
<wgt id='1162'> +8.6460185e+01 </wgt>
<wgt id='1163'> +8.6940871e+01 </wgt>
<wgt id='1164'> +8.8283137e+01 </wgt>
<wgt id='1165'> +8.5697097e+01 </wgt>
<wgt id='1166'> +8.2050683e+01 </wgt>
<wgt id='1167'> +8.6282443e+01 </wgt>
<wgt id='1168'> +8.7034527e+01 </wgt>
<wgt id='1169'> +9.0576178e+01 </wgt>
<wgt id='1170'> +8.3917982e+01 </wgt>
<wgt id='1171'> +8.6710019e+01 </wgt>
<wgt id='1172'> +8.1972630e+01 </wgt>
<wgt id='1173'> +8.3741626e+01 </wgt>
<wgt id='1174'> +8.7819654e+01 </wgt>
<wgt id='1175'> +8.4247107e+01 </wgt>
<wgt id='1176'> +8.3958002e+01 </wgt>
<wgt id='1177'> +8.8905131e+01 </wgt>
<wgt id='1178'> +8.3906160e+01 </wgt>
<wgt id='1179'> +8.6553581e+01 </wgt>
<wgt id='1180'> +8.8952537e+01 </wgt>
<wgt id='1181'> +9.0402890e+01 </wgt>
<wgt id='1182'> +8.4929693e+01 </wgt>
<wgt id='1183'> +8.4381930e+01 </wgt>
<wgt id='1184'> +8.5477669e+01 </wgt>
<wgt id='1185'> +8.2340346e+01 </wgt>
<wgt id='1186'> +8.9669489e+01 </wgt>
<wgt id='1187'> +7.7087524e+01 </wgt>
<wgt id='1188'> +7.9534265e+01 </wgt>
<wgt id='1189'> +8.2476867e+01 </wgt>
<wgt id='1190'> +8.8741685e+01 </wgt>
<wgt id='1191'> +7.9641879e+01 </wgt>
<wgt id='1192'> +8.3256874e+01 </wgt>
<wgt id='1193'> +8.3542024e+01 </wgt>
<wgt id='1194'> +8.9942662e+01 </wgt>
<wgt id='1195'> +8.4274977e+01 </wgt>
<wgt id='1196'> +8.5070843e+01 </wgt>
<wgt id='1197'> +8.7818217e+01 </wgt>
<wgt id='1198'> +8.3373049e+01 </wgt>
<wgt id='1199'> +8.1953945e+01 </wgt>
<wgt id='1200'> +8.8957636e+01 </wgt>
<wgt id='1201'> +8.2924884e+01 </wgt>
<wgt id='1202'> +8.7853547e+01 </wgt>
<wgt id='1203'> +8.0860380e+01 </wgt>
<wgt id='1204'> +8.4891903e+01 </wgt>
<wgt id='1205'> +8.5301439e+01 </wgt>
<wgt id='1206'> +8.4706326e+01 </wgt>
<wgt id='1207'> +8.3931076e+01 </wgt>
<wgt id='1208'> +8.6991159e+01 </wgt>
<wgt id='1209'> +8.2622813e+01 </wgt>
<wgt id='1210'> +8.3012668e+01 </wgt>
<wgt id='1211'> +8.8569582e+01 </wgt>
<wgt id='1212'> +8.3172854e+01 </wgt>
<wgt id='1213'> +8.2686996e+01 </wgt>
<wgt id='1214'> +8.2822155e+01 </wgt>
<wgt id='1215'> +8.0831974e+01 </wgt>
<wgt id='1216'> +8.3797224e+01 </wgt>
<wgt id='1217'> +8.3703708e+01 </wgt>
<wgt id='1218'> +8.3951015e+01 </wgt>
<wgt id='1219'> +8.3703379e+01 </wgt>
<wgt id='1220'> +8.4284780e+01 </wgt>
<wgt id='1221'> +8.3679229e+01 </wgt>
<wgt id='1222'> +8.3584777e+01 </wgt>
<wgt id='1223'> +8.3681139e+01 </wgt>
<wgt id='1224'> +8.3366978e+01 </wgt>
<wgt id='1225'> +8.3850605e+01 </wgt>
<wgt id='1226'> +8.2967032e+01 </wgt>
<wgt id='1227'> +8.3746938e+01 </wgt>
<wgt id='1228'> +8.3905374e+01 </wgt>
<wgt id='1229'> +8.3883227e+01 </wgt>
<wgt id='1230'> +8.4327574e+01 </wgt>
<wgt id='1231'> +8.2935123e+01 </wgt>
<wgt id='1232'> +8.3975374e+01 </wgt>
<wgt id='1233'> +8.3458473e+01 </wgt>
<wgt id='1234'> +8.4068038e+01 </wgt>
<wgt id='1235'> +8.3910469e+01 </wgt>
<wgt id='1236'> +8.3103379e+01 </wgt>
<wgt id='1237'> +8.4781968e+01 </wgt>
<wgt id='1238'> +8.4087296e+01 </wgt>
<wgt id='1239'> +8.4024151e+01 </wgt>
<wgt id='1240'> +8.4209641e+01 </wgt>
<wgt id='1241'> +8.3062343e+01 </wgt>
<wgt id='1242'> +8.3626421e+01 </wgt>
<wgt id='1243'> +8.4136316e+01 </wgt>
<wgt id='1244'> +8.3512526e+01 </wgt>
<wgt id='1245'> +8.4849767e+01 </wgt>
<wgt id='1246'> +8.4372098e+01 </wgt>
<wgt id='1247'> +8.3343410e+01 </wgt>
<wgt id='1248'> +8.3593085e+01 </wgt>
<wgt id='1249'> +8.3919789e+01 </wgt>
<wgt id='1250'> +8.4158786e+01 </wgt>
<wgt id='1251'> +8.3786418e+01 </wgt>
<wgt id='1252'> +8.3859910e+01 </wgt>
<wgt id='1253'> +8.3707178e+01 </wgt>
<wgt id='1254'> +8.3822550e+01 </wgt>
<wgt id='1255'> +8.3520316e+01 </wgt>
<wgt id='1256'> +8.3786982e+01 </wgt>
<wgt id='1257'> +8.3261388e+01 </wgt>
<wgt id='1258'> +8.3968050e+01 </wgt>
<wgt id='1259'> +8.3681503e+01 </wgt>
<wgt id='1260'> +8.3739812e+01 </wgt>
<wgt id='1261'> +8.3919746e+01 </wgt>
<wgt id='1262'> +8.3767659e+01 </wgt>
<wgt id='1263'> +8.3473788e+01 </wgt>
<wgt id='1264'> +8.3675103e+01 </wgt>
<wgt id='1265'> +8.4214148e+01 </wgt>
<wgt id='1266'> +8.3808655e+01 </wgt>
<wgt id='1267'> +8.3868896e+01 </wgt>
<wgt id='1268'> +8.3841505e+01 </wgt>
<wgt id='1269'> +8.3695634e+01 </wgt>
<wgt id='1270'> +8.3746365e+01 </wgt>
<wgt id='1271'> +8.3748862e+01 </wgt>
<wgt id='1272'> +8.4023470e+01 </wgt>
<wgt id='1273'> +8.3734995e+01 </wgt>
<wgt id='1274'> +8.3525929e+01 </wgt>
<wgt id='1275'> +8.3739824e+01 </wgt>
<wgt id='1276'> +8.3971034e+01 </wgt>
<wgt id='1277'> +8.3791408e+01 </wgt>
<wgt id='1278'> +8.3778030e+01 </wgt>
<wgt id='1279'> +8.3775276e+01 </wgt>
<wgt id='1280'> +8.3867771e+01 </wgt>
<wgt id='1281'> +8.3875874e+01 </wgt>
<wgt id='1282'> +8.3833839e+01 </wgt>
<wgt id='1283'> +8.3806489e+01 </wgt>
<wgt id='1284'> +8.3816212e+01 </wgt>
<wgt id='1285'> +8.3776596e+01 </wgt>
<wgt id='1286'> +8.3658144e+01 </wgt>
<wgt id='1287'> +8.3826415e+01 </wgt>
<wgt id='1288'> +8.3693262e+01 </wgt>
<wgt id='1289'> +8.3730304e+01 </wgt>
<wgt id='1290'> +8.3813879e+01 </wgt>
<wgt id='1291'> +8.3811035e+01 </wgt>
<wgt id='1292'> +8.3895552e+01 </wgt>
<wgt id='1293'> +8.3683310e+01 </wgt>
<wgt id='1294'> +8.3670080e+01 </wgt>
<wgt id='1295'> +8.3830207e+01 </wgt>
<wgt id='1296'> +8.3876650e+01 </wgt>
<wgt id='1297'> +8.3564549e+01 </wgt>
<wgt id='1298'> +8.3770637e+01 </wgt>
<wgt id='1299'> +8.3747063e+01 </wgt>
<wgt id='1300'> +8.3929980e+01 </wgt>
<wgt id='1301'> +8.3735166e+01 </wgt>
<wgt id='1302'> +8.3805325e+01 </wgt>
<wgt id='1303'> +8.3764381e+01 </wgt>
<wgt id='1304'> +8.3762558e+01 </wgt>
<wgt id='1305'> +8.3724587e+01 </wgt>
<wgt id='1306'> +8.3809751e+01 </wgt>
<wgt id='1307'> +8.3861593e+01 </wgt>
<wgt id='1308'> +8.3742275e+01 </wgt>
<wgt id='1309'> +8.3940196e+01 </wgt>
<wgt id='1310'> +8.3694811e+01 </wgt>
<wgt id='1311'> +8.3720804e+01 </wgt>
<wgt id='1312'> +8.3780963e+01 </wgt>
<wgt id='1313'> +8.3782358e+01 </wgt>
<wgt id='1314'> +8.3880096e+01 </wgt>
<wgt id='1315'> +8.3727342e+01 </wgt>
<wgt id='1316'> +8.3939119e+01 </wgt>
<wgt id='1317'> +8.3032241e+01 </wgt>
<wgt id='1318'> +8.4957357e+01 </wgt>
<wgt id='1319'> +9.1181903e+01 </wgt>
<wgt id='1320'> +8.1843378e+01 </wgt>
<wgt id='1321'> +8.1832785e+01 </wgt>
<wgt id='1322'> +8.3247355e+01 </wgt>
<wgt id='1323'> +8.2317083e+01 </wgt>
<wgt id='1324'> +8.2726843e+01 </wgt>
<wgt id='1325'> +8.2644655e+01 </wgt>
<wgt id='1326'> +8.1786106e+01 </wgt>
<wgt id='1327'> +8.1473423e+01 </wgt>
<wgt id='1328'> +8.4934720e+01 </wgt>
<wgt id='1329'> +8.0361464e+01 </wgt>
<wgt id='1330'> +8.3455930e+01 </wgt>
<wgt id='1331'> +8.1860651e+01 </wgt>
<wgt id='1332'> +8.1858463e+01 </wgt>
<wgt id='1333'> +8.0079564e+01 </wgt>
<wgt id='1334'> +8.2133270e+01 </wgt>
<wgt id='1335'> +8.3509668e+01 </wgt>
<wgt id='1336'> +7.9330520e+01 </wgt>
<wgt id='1337'> +8.4413187e+01 </wgt>
<wgt id='1338'> +7.8939474e+01 </wgt>
<wgt id='1339'> +8.2292937e+01 </wgt>
<wgt id='1340'> +8.1210015e+01 </wgt>
<wgt id='1341'> +8.2264862e+01 </wgt>
<wgt id='1342'> +8.0898451e+01 </wgt>
<wgt id='1343'> +8.2946729e+01 </wgt>
<wgt id='1344'> +8.0484673e+01 </wgt>
<wgt id='1345'> +8.2401822e+01 </wgt>
<wgt id='1346'> +8.1525963e+01 </wgt>
<wgt id='1347'> +8.1919414e+01 </wgt>
<wgt id='1348'> +8.1671156e+01 </wgt>
<wgt id='1349'> +8.1121917e+01 </wgt>
<wgt id='1350'> +8.2083911e+01 </wgt>
<wgt id='1351'> +8.1307566e+01 </wgt>
<wgt id='1352'> +8.2521639e+01 </wgt>
<wgt id='1353'> +8.2377088e+01 </wgt>
<wgt id='1354'> +8.0652912e+01 </wgt>
<wgt id='1355'> +8.1029779e+01 </wgt>
<wgt id='1356'> +8.2821695e+01 </wgt>
<wgt id='1357'> +8.2262194e+01 </wgt>
<wgt id='1358'> +8.0600909e+01 </wgt>
<wgt id='1359'> +8.0480693e+01 </wgt>
<wgt id='1360'> +8.2146665e+01 </wgt>
<wgt id='1361'> +8.3199866e+01 </wgt>
<wgt id='1362'> +8.0460142e+01 </wgt>
<wgt id='1363'> +8.2188369e+01 </wgt>
<wgt id='1364'> +8.1022762e+01 </wgt>
<wgt id='1365'> +8.1311332e+01 </wgt>
<wgt id='1366'> +8.1296793e+01 </wgt>
<wgt id='1367'> +8.1533702e+01 </wgt>
<wgt id='1368'> +8.1512935e+01 </wgt>
<wgt id='1369'> +8.1980832e+01 </wgt>
<wgt id='1370'> +8.1152302e+01 </wgt>
<wgt id='1371'> +7.9731778e+01 </wgt>
<wgt id='1372'> +8.0833309e+01 </wgt>
<wgt id='1373'> +8.1693396e+01 </wgt>
<wgt id='1374'> +8.0906753e+01 </wgt>
<wgt id='1375'> +7.9309477e+01 </wgt>
<wgt id='1376'> +8.5062282e+01 </wgt>
<wgt id='1377'> +8.0691821e+01 </wgt>
<wgt id='1378'> +8.2949674e+01 </wgt>
<wgt id='1379'> +8.6342821e+01 </wgt>
<wgt id='1380'> +8.4941611e+01 </wgt>
<wgt id='1381'> +8.7908040e+01 </wgt>
<wgt id='1382'> +7.3828275e+01 </wgt>
<wgt id='1383'> +7.8416153e+01 </wgt>
<wgt id='1384'> +8.4403495e+01 </wgt>
<wgt id='1385'> +6.8507500e+01 </wgt>
<wgt id='1386'> +6.8755474e+01 </wgt>
<wgt id='1387'> +6.8232071e+01 </wgt>
<wgt id='1388'> +6.8105825e+01 </wgt>
<wgt id='1389'> +6.9195052e+01 </wgt>
<wgt id='1390'> +6.9106781e+01 </wgt>
<wgt id='1391'> +6.7800629e+01 </wgt>
<wgt id='1392'> +6.8530058e+01 </wgt>
<wgt id='1393'> +6.8494797e+01 </wgt>
<wgt id='1394'> +6.8415973e+01 </wgt>
<wgt id='1395'> +6.8612259e+01 </wgt>
<wgt id='1396'> +6.8440985e+01 </wgt>
<wgt id='1397'> +6.8533396e+01 </wgt>
<wgt id='1398'> +6.8282736e+01 </wgt>
<wgt id='1399'> +6.8655217e+01 </wgt>
<wgt id='1400'> +6.8918978e+01 </wgt>
<wgt id='1401'> +6.8175462e+01 </wgt>
<wgt id='1402'> +6.8948971e+01 </wgt>
<wgt id='1403'> +6.8307707e+01 </wgt>
<wgt id='1404'> +6.7381111e+01 </wgt>
<wgt id='1405'> +6.9057882e+01 </wgt>
<wgt id='1406'> +6.7896330e+01 </wgt>
<wgt id='1407'> +6.9591259e+01 </wgt>
<wgt id='1408'> +6.8142199e+01 </wgt>
<wgt id='1409'> +6.9241876e+01 </wgt>
<wgt id='1410'> +6.8679553e+01 </wgt>
<wgt id='1411'> +6.8042240e+01 </wgt>
<wgt id='1412'> +6.9032127e+01 </wgt>
<wgt id='1413'> +6.7686924e+01 </wgt>
<wgt id='1414'> +6.9128815e+01 </wgt>
<wgt id='1415'> +6.8109746e+01 </wgt>
<wgt id='1416'> +6.8674891e+01 </wgt>
<wgt id='1417'> +6.8421483e+01 </wgt>
<wgt id='1418'> +6.8082915e+01 </wgt>
<wgt id='1419'> +6.9405225e+01 </wgt>
<wgt id='1420'> +6.8143708e+01 </wgt>
<wgt id='1421'> +6.8555233e+01 </wgt>
<wgt id='1422'> +6.8618202e+01 </wgt>
<wgt id='1423'> +6.8416698e+01 </wgt>
<wgt id='1424'> +6.8905218e+01 </wgt>
<wgt id='1425'> +6.7717066e+01 </wgt>
<wgt id='1426'> +6.9270810e+01 </wgt>
<wgt id='1427'> +6.9052210e+01 </wgt>
<wgt id='1428'> +6.8031137e+01 </wgt>
<wgt id='1429'> +6.7742590e+01 </wgt>
<wgt id='1430'> +6.9172061e+01 </wgt>
<wgt id='1431'> +6.9421619e+01 </wgt>
<wgt id='1432'> +6.9275384e+01 </wgt>
<wgt id='1433'> +6.9587976e+01 </wgt>
<wgt id='1434'> +6.8304350e+01 </wgt>
<wgt id='1435'> +6.8756337e+01 </wgt>
<wgt id='1436'> +7.9557904e+01 </wgt>
<wgt id='1437'> +7.9732790e+01 </wgt>
<wgt id='1438'> +7.9221579e+01 </wgt>
<wgt id='1439'> +7.9560924e+01 </wgt>
<wgt id='1440'> +7.9508009e+01 </wgt>
<wgt id='1441'> +8.0007655e+01 </wgt>
<wgt id='1442'> +7.9443313e+01 </wgt>
<wgt id='1443'> +7.9892193e+01 </wgt>
<wgt id='1444'> +7.9360585e+01 </wgt>
<wgt id='1445'> +7.9183918e+01 </wgt>
<wgt id='1446'> +7.9708281e+01 </wgt>
<wgt id='1447'> +7.9640459e+01 </wgt>
<wgt id='1448'> +7.9259148e+01 </wgt>
<wgt id='1449'> +7.9904485e+01 </wgt>
<wgt id='1450'> +7.9626722e+01 </wgt>
<wgt id='1451'> +7.9519474e+01 </wgt>
<wgt id='1452'> +7.9448190e+01 </wgt>
<wgt id='1453'> +7.9408954e+01 </wgt>
<wgt id='1454'> +7.9644460e+01 </wgt>
<wgt id='1455'> +7.9383818e+01 </wgt>
<wgt id='1456'> +7.9423952e+01 </wgt>
<wgt id='1457'> +7.9726882e+01 </wgt>
<wgt id='1458'> +7.9346286e+01 </wgt>
<wgt id='1459'> +7.9769642e+01 </wgt>
<wgt id='1460'> +7.9634861e+01 </wgt>
<wgt id='1461'> +8.0043989e+01 </wgt>
<wgt id='1462'> +7.9771801e+01 </wgt>
<wgt id='1463'> +7.9504195e+01 </wgt>
<wgt id='1464'> +7.9422826e+01 </wgt>
<wgt id='1465'> +8.6414141e+01 </wgt>
<wgt id='1466'> +7.8593216e+01 </wgt>
<wgt id='1467'> +7.8479029e+01 </wgt>
<wgt id='1468'> +7.7859070e+01 </wgt>
<wgt id='1469'> +8.0323171e+01 </wgt>
<wgt id='1470'> +7.8253773e+01 </wgt>
<wgt id='1471'> +7.8632528e+01 </wgt>
<wgt id='1472'> +7.7404340e+01 </wgt>
<wgt id='1473'> +7.9619180e+01 </wgt>
<wgt id='1474'> +7.9660917e+01 </wgt>
<wgt id='1475'> +7.7871697e+01 </wgt>
<wgt id='1476'> +7.7674070e+01 </wgt>
<wgt id='1477'> +7.7855715e+01 </wgt>
<wgt id='1478'> +7.8422391e+01 </wgt>
<wgt id='1479'> +7.9215337e+01 </wgt>
<wgt id='1480'> +7.8876080e+01 </wgt>
<wgt id='1481'> +7.8212060e+01 </wgt>
<wgt id='1482'> +7.8370461e+01 </wgt>
<wgt id='1483'> +7.8802336e+01 </wgt>
<wgt id='1484'> +7.9435808e+01 </wgt>
<wgt id='1485'> +7.8124489e+01 </wgt>
<wgt id='1486'> +7.8964033e+01 </wgt>
<wgt id='1487'> +7.7896699e+01 </wgt>
<wgt id='1488'> +7.7917214e+01 </wgt>
<wgt id='1489'> +7.8854080e+01 </wgt>
<wgt id='1490'> +7.8732004e+01 </wgt>
<wgt id='1491'> +7.8391172e+01 </wgt>
<wgt id='1492'> +7.8281936e+01 </wgt>
<wgt id='1493'> +7.8636916e+01 </wgt>
<wgt id='1494'> +7.8244497e+01 </wgt>
<wgt id='1495'> +7.8518045e+01 </wgt>
<wgt id='1496'> +7.8464099e+01 </wgt>
<wgt id='1497'> +7.8716642e+01 </wgt>
<wgt id='1498'> +7.7989976e+01 </wgt>
<wgt id='1499'> +7.7951595e+01 </wgt>
<wgt id='1500'> +7.9021805e+01 </wgt>
<wgt id='1501'> +7.8770777e+01 </wgt>
<wgt id='1502'> +7.8455212e+01 </wgt>
<wgt id='1503'> +7.8617591e+01 </wgt>
<wgt id='1504'> +7.8614380e+01 </wgt>
<wgt id='1505'> +7.8798513e+01 </wgt>
<wgt id='1506'> +7.8371742e+01 </wgt>
<wgt id='1507'> +7.8534440e+01 </wgt>
<wgt id='1508'> +7.8612469e+01 </wgt>
<wgt id='1509'> +7.8552358e+01 </wgt>
<wgt id='1510'> +7.8453597e+01 </wgt>
<wgt id='1511'> +7.8759981e+01 </wgt>
<wgt id='1512'> +7.8789610e+01 </wgt>
<wgt id='1513'> +7.8532345e+01 </wgt>
<wgt id='1514'> +7.8615436e+01 </wgt>
<wgt id='1515'> +7.8552443e+01 </wgt>
<wgt id='1516'> +7.8688499e+01 </wgt>
<wgt id='1517'> +7.8467416e+01 </wgt>
<wgt id='1518'> +7.8701621e+01 </wgt>
<wgt id='1519'> +7.8487347e+01 </wgt>
<wgt id='1520'> +7.8611042e+01 </wgt>
<wgt id='1521'> +7.8682706e+01 </wgt>
<wgt id='1522'> +7.8494378e+01 </wgt>
<wgt id='1523'> +7.8600650e+01 </wgt>
<wgt id='1524'> +7.8592299e+01 </wgt>
<wgt id='1525'> +7.8733087e+01 </wgt>
<wgt id='1526'> +7.8610155e+01 </wgt>
<wgt id='1527'> +7.8592817e+01 </wgt>
<wgt id='1528'> +7.8582220e+01 </wgt>
<wgt id='1529'> +7.8570742e+01 </wgt>
<wgt id='1530'> +7.8636366e+01 </wgt>
<wgt id='1531'> +7.8654975e+01 </wgt>
<wgt id='1532'> +7.8659719e+01 </wgt>
<wgt id='1533'> +7.8662512e+01 </wgt>
<wgt id='1534'> +7.8615398e+01 </wgt>
<wgt id='1535'> +7.8599469e+01 </wgt>
<wgt id='1536'> +7.8618387e+01 </wgt>
<wgt id='1537'> +7.8564350e+01 </wgt>
<wgt id='1538'> +7.8645791e+01 </wgt>
<wgt id='1539'> +7.8628007e+01 </wgt>
<wgt id='1540'> +7.8614495e+01 </wgt>
<wgt id='1541'> +7.8709699e+01 </wgt>
<wgt id='1542'> +7.8555932e+01 </wgt>
<wgt id='1543'> +7.8600985e+01 </wgt>
<wgt id='1544'> +7.8547366e+01 </wgt>
<wgt id='1545'> +7.8616563e+01 </wgt>
<wgt id='1546'> +7.8599973e+01 </wgt>
<wgt id='1547'> +7.8565026e+01 </wgt>
<wgt id='1548'> +7.8565994e+01 </wgt>
<wgt id='1549'> +7.8658482e+01 </wgt>
<wgt id='1550'> +7.8535185e+01 </wgt>
<wgt id='1551'> +7.8650853e+01 </wgt>
<wgt id='1552'> +7.8602838e+01 </wgt>
<wgt id='1553'> +7.8624105e+01 </wgt>
<wgt id='1554'> +7.8588156e+01 </wgt>
<wgt id='1555'> +7.8641611e+01 </wgt>
<wgt id='1556'> +7.8564680e+01 </wgt>
<wgt id='1557'> +7.8588281e+01 </wgt>
<wgt id='1558'> +7.8602900e+01 </wgt>
<wgt id='1559'> +7.8582833e+01 </wgt>
<wgt id='1560'> +7.8599087e+01 </wgt>
<wgt id='1561'> +7.8533593e+01 </wgt>
<wgt id='1562'> +7.8597576e+01 </wgt>
<wgt id='1563'> +7.8606063e+01 </wgt>
<wgt id='1564'> +7.8572873e+01 </wgt>
<wgt id='1565'> +7.8609758e+01 </wgt>
<wgt id='1566'> +7.8594290e+01 </wgt>
<wgt id='1567'> +7.7560927e+01 </wgt>
<wgt id='1568'> +7.9657948e+01 </wgt>
<wgt id='1569'> +8.3828007e+01 </wgt>
<wgt id='1570'> +8.4501603e+01 </wgt>
<wgt id='1571'> +8.3082519e+01 </wgt>
<wgt id='1572'> +8.4873335e+01 </wgt>
<wgt id='1573'> +8.5103134e+01 </wgt>
<wgt id='1574'> +8.5018076e+01 </wgt>
<wgt id='1575'> +8.4567511e+01 </wgt>
<wgt id='1576'> +8.3821571e+01 </wgt>
<wgt id='1577'> +8.3938508e+01 </wgt>
<wgt id='1578'> +8.4148684e+01 </wgt>
<wgt id='1579'> +8.4310442e+01 </wgt>
<wgt id='1580'> +8.4247488e+01 </wgt>
<wgt id='1581'> +8.3473587e+01 </wgt>
<wgt id='1582'> +8.4623482e+01 </wgt>
<wgt id='1583'> +8.3068735e+01 </wgt>
<wgt id='1584'> +8.3805795e+01 </wgt>
<wgt id='1585'> +8.3188069e+01 </wgt>
<wgt id='1586'> +8.3957220e+01 </wgt>
<wgt id='1587'> +8.4441913e+01 </wgt>
<wgt id='1588'> +8.2269968e+01 </wgt>
<wgt id='1589'> +8.3994818e+01 </wgt>
<wgt id='1590'> +8.4009409e+01 </wgt>
<wgt id='1591'> +8.3686069e+01 </wgt>
<wgt id='1592'> +8.3974699e+01 </wgt>
<wgt id='1593'> +8.4214059e+01 </wgt>
<wgt id='1594'> +8.4124805e+01 </wgt>
<wgt id='1595'> +8.3688163e+01 </wgt>
<wgt id='1596'> +8.3673642e+01 </wgt>
<wgt id='1597'> +8.4175906e+01 </wgt>
<wgt id='1598'> +8.4415059e+01 </wgt>
<wgt id='1599'> +8.4152812e+01 </wgt>
<wgt id='1600'> +8.4234373e+01 </wgt>
<wgt id='1601'> +8.4126378e+01 </wgt>
<wgt id='1602'> +8.4498394e+01 </wgt>
<wgt id='1603'> +8.4089526e+01 </wgt>
<wgt id='1604'> +8.4200456e+01 </wgt>
<wgt id='1605'> +8.4203943e+01 </wgt>
<wgt id='1606'> +8.3768949e+01 </wgt>
<wgt id='1607'> +8.3475156e+01 </wgt>
<wgt id='1608'> +8.4204346e+01 </wgt>
<wgt id='1609'> +8.3561027e+01 </wgt>
<wgt id='1610'> +8.3724101e+01 </wgt>
<wgt id='1611'> +8.3626871e+01 </wgt>
<wgt id='1612'> +8.3978300e+01 </wgt>
<wgt id='1613'> +8.3727425e+01 </wgt>
<wgt id='1614'> +8.3915569e+01 </wgt>
<wgt id='1615'> +8.3515314e+01 </wgt>
<wgt id='1616'> +8.3693584e+01 </wgt>
<wgt id='1617'> +8.3754867e+01 </wgt>
<wgt id='1618'> +8.3747847e+01 </wgt>
<wgt id='1619'> +8.3817557e+01 </wgt>
<wgt id='1620'> +8.3829085e+01 </wgt>
<wgt id='1621'> +8.3917765e+01 </wgt>
<wgt id='1622'> +8.3789752e+01 </wgt>
<wgt id='1623'> +8.3743400e+01 </wgt>
<wgt id='1624'> +8.3838727e+01 </wgt>
<wgt id='1625'> +8.3838888e+01 </wgt>
<wgt id='1626'> +8.3928364e+01 </wgt>
<wgt id='1627'> +8.3825666e+01 </wgt>
<wgt id='1628'> +8.3858922e+01 </wgt>
<wgt id='1629'> +8.3982980e+01 </wgt>
<wgt id='1630'> +8.3802258e+01 </wgt>
<wgt id='1631'> +8.3748702e+01 </wgt>
<wgt id='1632'> +8.3903864e+01 </wgt>
<wgt id='1633'> +8.3804911e+01 </wgt>
<wgt id='1634'> +8.3645045e+01 </wgt>
<wgt id='1635'> +8.3786501e+01 </wgt>
<wgt id='1636'> +8.3801718e+01 </wgt>
<wgt id='1637'> +8.3858413e+01 </wgt>
<wgt id='1638'> +8.3846365e+01 </wgt>
<wgt id='1639'> +8.3805152e+01 </wgt>
<wgt id='1640'> +8.3824928e+01 </wgt>
<wgt id='1641'> +8.3883291e+01 </wgt>
<wgt id='1642'> +8.3815321e+01 </wgt>
<wgt id='1643'> +8.3783667e+01 </wgt>
<wgt id='1644'> +8.3797847e+01 </wgt>
<wgt id='1645'> +8.3862575e+01 </wgt>
<wgt id='1646'> +8.3832956e+01 </wgt>
<wgt id='1647'> +8.3822694e+01 </wgt>
<wgt id='1648'> +8.3874762e+01 </wgt>
<wgt id='1649'> +8.3891875e+01 </wgt>
<wgt id='1650'> +8.3897071e+01 </wgt>
<wgt id='1651'> +8.3850856e+01 </wgt>
<wgt id='1652'> +8.3864239e+01 </wgt>
<wgt id='1653'> +8.3814277e+01 </wgt>
<wgt id='1654'> +8.3844528e+01 </wgt>
<wgt id='1655'> +8.3855882e+01 </wgt>
<wgt id='1656'> +8.3793977e+01 </wgt>
<wgt id='1657'> +8.3827037e+01 </wgt>
<wgt id='1658'> +8.3842851e+01 </wgt>
<wgt id='1659'> +8.3860421e+01 </wgt>
<wgt id='1660'> +8.3818378e+01 </wgt>
<wgt id='1661'> +8.3802508e+01 </wgt>
<wgt id='1662'> +8.3858038e+01 </wgt>
<wgt id='1663'> +8.3808950e+01 </wgt>
<wgt id='1664'> +8.3765485e+01 </wgt>
<wgt id='1665'> +8.3822556e+01 </wgt>
<wgt id='1666'> +8.3846393e+01 </wgt>
<wgt id='1667'> +8.3889185e+01 </wgt>
<wgt id='1668'> +8.3800442e+01 </wgt>
<wgt id='1669'> +8.3780808e+01 </wgt>
<wgt id='1670'> +8.2525230e+01 </wgt>
<wgt id='1671'> +8.5116080e+01 </wgt>
<wgt id='1672'> +7.8584370e+01 </wgt>
<wgt id='1673'> +7.8224610e+01 </wgt>
<wgt id='1674'> +7.7821769e+01 </wgt>
<wgt id='1675'> +7.8648120e+01 </wgt>
<wgt id='1676'> +8.1763656e+01 </wgt>
<wgt id='1677'> +7.8934970e+01 </wgt>
<wgt id='1678'> +7.8306833e+01 </wgt>
<wgt id='1679'> +7.8635206e+01 </wgt>
<wgt id='1680'> +7.8584966e+01 </wgt>
<wgt id='1681'> +7.9080495e+01 </wgt>
<wgt id='1682'> +7.8471219e+01 </wgt>
<wgt id='1683'> +7.7726348e+01 </wgt>
<wgt id='1684'> +7.8625468e+01 </wgt>
<wgt id='1685'> +7.8540009e+01 </wgt>
<wgt id='1686'> +7.8210446e+01 </wgt>
<wgt id='1687'> +7.8748071e+01 </wgt>
<wgt id='1688'> +7.8837903e+01 </wgt>
<wgt id='1689'> +7.7945717e+01 </wgt>
<wgt id='1690'> +7.8669208e+01 </wgt>
<wgt id='1691'> +7.8527724e+01 </wgt>
<wgt id='1692'> +7.9066366e+01 </wgt>
<wgt id='1693'> +7.8479758e+01 </wgt>
<wgt id='1694'> +7.8495135e+01 </wgt>
<wgt id='1695'> +7.8698507e+01 </wgt>
<wgt id='1696'> +7.8521749e+01 </wgt>
<wgt id='1697'> +7.8520511e+01 </wgt>
<wgt id='1698'> +7.8622068e+01 </wgt>
<wgt id='1699'> +7.8615915e+01 </wgt>
<wgt id='1700'> +7.8502383e+01 </wgt>
<wgt id='1701'> +7.8230032e+01 </wgt>
<wgt id='1702'> +7.8701234e+01 </wgt>
<wgt id='1703'> +7.7560927e+01 </wgt>
<wgt id='1704'> +7.9657948e+01 </wgt>
<wgt id='1705'> +8.3818466e+01 </wgt>
<wgt id='1706'> +8.4090690e+01 </wgt>
<wgt id='1707'> +8.4366042e+01 </wgt>
<wgt id='1708'> +8.3915257e+01 </wgt>
<wgt id='1709'> +8.0873596e+01 </wgt>
<wgt id='1710'> +8.3682924e+01 </wgt>
<wgt id='1711'> +8.3952149e+01 </wgt>
<wgt id='1712'> +8.3797125e+01 </wgt>
<wgt id='1713'> +8.3977547e+01 </wgt>
<wgt id='1714'> +8.3457575e+01 </wgt>
<wgt id='1715'> +8.3844216e+01 </wgt>
<wgt id='1716'> +8.3864154e+01 </wgt>
<wgt id='1717'> +8.3771750e+01 </wgt>
<wgt id='1718'> +8.3888825e+01 </wgt>
<wgt id='1719'> +8.3764434e+01 </wgt>
<wgt id='1720'> +8.4086911e+01 </wgt>
<wgt id='1721'> +8.3788713e+01 </wgt>
<wgt id='1722'> +8.3636170e+01 </wgt>
<wgt id='1723'> +8.3906934e+01 </wgt>
<wgt id='1724'> +8.3994604e+01 </wgt>
<wgt id='1725'> +8.2648705e+01 </wgt>
<wgt id='1726'> +8.3841389e+01 </wgt>
<wgt id='1727'> +8.4000133e+01 </wgt>
<wgt id='1728'> +8.3890518e+01 </wgt>
<wgt id='1729'> +8.3654471e+01 </wgt>
<wgt id='1730'> +8.3855774e+01 </wgt>
<wgt id='1731'> +8.3764520e+01 </wgt>
<wgt id='1732'> +8.4028321e+01 </wgt>
<wgt id='1733'> +8.3727371e+01 </wgt>
<wgt id='1734'> +8.3523569e+01 </wgt>
<wgt id='1735'> +8.4723246e+01 </wgt>
<wgt id='1736'> +8.2525230e+01 </wgt>
<wgt id='1737'> +8.5116080e+01 </wgt>
<wgt id='1738'> +9.0984781e+01 </wgt>
<wgt id='1739'> +9.1259357e+01 </wgt>
<wgt id='1740'> +9.0712010e+01 </wgt>
<wgt id='1741'> +9.0914530e+01 </wgt>
<wgt id='1742'> +9.1054730e+01 </wgt>
<wgt id='1743'> +9.1194437e+01 </wgt>
<wgt id='1744'> +9.0774924e+01 </wgt>
<wgt id='1745'> +9.0529797e+01 </wgt>
<wgt id='1746'> +9.1423810e+01 </wgt>
<wgt id='1747'> +9.1293959e+01 </wgt>
<wgt id='1748'> +9.0674171e+01 </wgt>
<wgt id='1749'> +9.1413533e+01 </wgt>
<wgt id='1750'> +9.0527762e+01 </wgt>
<wgt id='1751'> +9.1012249e+01 </wgt>
<wgt id='1752'> +9.0951118e+01 </wgt>
<wgt id='1753'> +9.0854024e+01 </wgt>
<wgt id='1754'> +9.1123774e+01 </wgt>
<wgt id='1755'> +9.0820412e+01 </wgt>
<wgt id='1756'> +9.1016602e+01 </wgt>
<wgt id='1757'> +9.0739022e+01 </wgt>
<wgt id='1758'> +9.1265215e+01 </wgt>
<wgt id='1759'> +9.1397809e+01 </wgt>
<wgt id='1760'> +9.0462949e+01 </wgt>
<wgt id='1761'> +9.0623244e+01 </wgt>
<wgt id='1762'> +9.0989530e+01 </wgt>
<wgt id='1763'> +9.0912786e+01 </wgt>
<wgt id='1764'> +9.1185650e+01 </wgt>
<wgt id='1765'> +9.0278441e+01 </wgt>
<wgt id='1766'> +9.1632918e+01 </wgt>
<wgt id='1767'> +9.0984781e+01 </wgt>
<wgt id='1768'> +9.2829100e+01 </wgt>
<wgt id='1769'> +8.8753491e+01 </wgt>
<wgt id='1770'> +9.3112311e+01 </wgt>
<wgt id='1771'> +8.9446120e+01 </wgt>
<wgt id='1772'> +9.1086391e+01 </wgt>
<wgt id='1773'> +9.0739788e+01 </wgt>
<wgt id='1774'> +9.0791022e+01 </wgt>
<wgt id='1775'> +9.1174609e+01 </wgt>
<wgt id='1776'> +8.9765510e+01 </wgt>
<wgt id='1777'> +9.2193677e+01 </wgt>
<wgt id='1778'> +9.1057074e+01 </wgt>
<wgt id='1779'> +9.2186569e+01 </wgt>
<wgt id='1780'> +8.9869422e+01 </wgt>
<wgt id='1781'> +9.3198799e+01 </wgt>
<wgt id='1782'> +9.3505283e+01 </wgt>
<wgt id='1783'> +9.2923419e+01 </wgt>
<wgt id='1784'> +9.3050932e+01 </wgt>
<wgt id='1785'> +9.3376184e+01 </wgt>
<wgt id='1786'> +9.3376334e+01 </wgt>
<wgt id='1787'> +9.3050770e+01 </wgt>
<wgt id='1788'> +9.2659878e+01 </wgt>
<wgt id='1789'> +9.3742021e+01 </wgt>
<wgt id='1790'> +9.3582542e+01 </wgt>
<wgt id='1791'> +9.2835993e+01 </wgt>
<wgt id='1792'> +9.3095500e+01 </wgt>
<wgt id='1793'> +9.3330445e+01 </wgt>
<wgt id='1794'> +9.3098916e+01 </wgt>
<wgt id='1795'> +9.3330585e+01 </wgt>
<wgt id='1796'> +9.3185320e+01 </wgt>
<wgt id='1797'> +9.3323282e+01 </wgt>
<wgt id='1798'> +9.3055790e+01 </wgt>
<wgt id='1799'> +9.3349284e+01 </wgt>
<wgt id='1800'> +9.3292084e+01 </wgt>
<wgt id='1801'> +9.3125755e+01 </wgt>
<wgt id='1802'> +9.2427005e+01 </wgt>
<wgt id='1803'> +9.3877241e+01 </wgt>
<wgt id='1804'> +9.2787753e+01 </wgt>
<wgt id='1805'> +9.3652253e+01 </wgt>
<wgt id='1806'> +9.3071959e+01 </wgt>
<wgt id='1807'> +9.3170103e+01 </wgt>
<wgt id='1808'> +9.3093146e+01 </wgt>
<wgt id='1809'> +9.3330439e+01 </wgt>
<wgt id='1810'> +9.3199094e+01 </wgt>
<wgt id='1811'> +9.5305545e+01 </wgt>
<wgt id='1812'> +9.0437693e+01 </wgt>
<wgt id='1813'> +9.5664573e+01 </wgt>
<wgt id='1814'> +9.1455348e+01 </wgt>
<wgt id='1815'> +9.2538293e+01 </wgt>
<wgt id='1816'> +9.3242186e+01 </wgt>
<wgt id='1817'> +9.3023439e+01 </wgt>
<wgt id='1818'> +9.3490792e+01 </wgt>
<wgt id='1819'> +9.1633007e+01 </wgt>
<wgt id='1820'> +9.3828496e+01 </wgt>
<wgt id='1821'> +9.2542561e+01 </wgt>
<wgt id='1822'> +9.4848353e+01 </wgt>
<wgt id='1823'> +9.2909972e+01 </wgt>
<wgt id='1824'> +8.0947387e+01 </wgt>
<wgt id='1825'> +8.0913374e+01 </wgt>
<wgt id='1826'> +8.0879573e+01 </wgt>
<wgt id='1827'> +8.0845205e+01 </wgt>
<wgt id='1828'> +8.0811311e+01 </wgt>
<wgt id='1829'> +8.0777399e+01 </wgt>
<wgt id='1830'> +8.0742884e+01 </wgt>
<wgt id='1831'> +8.0709073e+01 </wgt>
<wgt id='1832'> +8.0675480e+01 </wgt>
<wgt id='1833'> +8.0641277e+01 </wgt>
<wgt id='1834'> +8.0607428e+01 </wgt>
<wgt id='1835'> +8.0572447e+01 </wgt>
<wgt id='1836'> +8.0538881e+01 </wgt>
<wgt id='1837'> +8.0505085e+01 </wgt>
<wgt id='1838'> +8.0470715e+01 </wgt>
<wgt id='1839'> +8.0436767e+01 </wgt>
<wgt id='1840'> +8.0403022e+01 </wgt>
<wgt id='1841'> +8.0369152e+01 </wgt>
<wgt id='1842'> +8.0335191e+01 </wgt>
<wgt id='1843'> +8.0301595e+01 </wgt>
<wgt id='1844'> +8.0267175e+01 </wgt>
<wgt id='1845'> +8.0233304e+01 </wgt>
<wgt id='1846'> +8.0199712e+01 </wgt>
<wgt id='1847'> +8.0165153e+01 </wgt>
<wgt id='1848'> +8.0131489e+01 </wgt>
<wgt id='1849'> +8.0097381e+01 </wgt>
<wgt id='1850'> +8.0063843e+01 </wgt>
<wgt id='1851'> +8.0029994e+01 </wgt>
<wgt id='1852'> +7.9995808e+01 </wgt>
<wgt id='1853'> +7.9961931e+01 </wgt>
<wgt id='1854'> +7.9928229e+01 </wgt>
<wgt id='1855'> +8.3570060e+01 </wgt>
<wgt id='1856'> +8.4209240e+01 </wgt>
<wgt id='1857'> +8.2818206e+01 </wgt>
<wgt id='1858'> +8.4611985e+01 </wgt>
<wgt id='1859'> +8.4832686e+01 </wgt>
<wgt id='1860'> +8.4754485e+01 </wgt>
<wgt id='1861'> +8.4330375e+01 </wgt>
<wgt id='1862'> +8.3586578e+01 </wgt>
<wgt id='1863'> +8.3682403e+01 </wgt>
<wgt id='1864'> +8.3890844e+01 </wgt>
<wgt id='1865'> +8.4045552e+01 </wgt>
<wgt id='1866'> +8.4021222e+01 </wgt>
<wgt id='1867'> +8.3231317e+01 </wgt>
<wgt id='1868'> +8.4375768e+01 </wgt>
<wgt id='1869'> +8.2808385e+01 </wgt>
<wgt id='1870'> +8.3504780e+01 </wgt>
<wgt id='1871'> +8.2962308e+01 </wgt>
<wgt id='1872'> +8.3685101e+01 </wgt>
<wgt id='1873'> +8.4175185e+01 </wgt>
<wgt id='1874'> +8.2038557e+01 </wgt>
<wgt id='1875'> +8.3760086e+01 </wgt>
<wgt id='1876'> +8.3743062e+01 </wgt>
<wgt id='1877'> +8.3422659e+01 </wgt>
<wgt id='1878'> +8.3728329e+01 </wgt>
<wgt id='1879'> +8.3942165e+01 </wgt>
<wgt id='1880'> +8.3843077e+01 </wgt>
<wgt id='1881'> +8.3409222e+01 </wgt>
<wgt id='1882'> +8.3445507e+01 </wgt>
<wgt id='1883'> +8.3926429e+01 </wgt>
<wgt id='1884'> +8.4138853e+01 </wgt>
<wgt id='1885'> +8.3885730e+01 </wgt>
<wgt id='1886'> +8.4003260e+01 </wgt>
<wgt id='1887'> +8.3856935e+01 </wgt>
<wgt id='1888'> +8.4228793e+01 </wgt>
<wgt id='1889'> +8.3831661e+01 </wgt>
<wgt id='1890'> +8.3933607e+01 </wgt>
<wgt id='1891'> +8.3948332e+01 </wgt>
<wgt id='1892'> +8.3510802e+01 </wgt>
<wgt id='1893'> +8.3214764e+01 </wgt>
<wgt id='1894'> +8.3934141e+01 </wgt>
<wgt id='1895'> +8.3303594e+01 </wgt>
<wgt id='1896'> +8.3460954e+01 </wgt>
<wgt id='1897'> +8.3366584e+01 </wgt>
<wgt id='1898'> +8.3733878e+01 </wgt>
<wgt id='1899'> +8.3467943e+01 </wgt>
<wgt id='1900'> +8.3654529e+01 </wgt>
<wgt id='1901'> +8.3265969e+01 </wgt>
<wgt id='1902'> +8.3434098e+01 </wgt>
<wgt id='1903'> +8.3502246e+01 </wgt>
<wgt id='1904'> +8.3487173e+01 </wgt>
<wgt id='1905'> +8.3561823e+01 </wgt>
<wgt id='1906'> +8.3568438e+01 </wgt>
<wgt id='1907'> +8.3659816e+01 </wgt>
<wgt id='1908'> +8.3531606e+01 </wgt>
<wgt id='1909'> +8.3488541e+01 </wgt>
<wgt id='1910'> +8.3584075e+01 </wgt>
<wgt id='1911'> +8.3572239e+01 </wgt>
<wgt id='1912'> +8.3672246e+01 </wgt>
<wgt id='1913'> +8.3573972e+01 </wgt>
<wgt id='1914'> +8.3604686e+01 </wgt>
<wgt id='1915'> +8.3728886e+01 </wgt>
<wgt id='1916'> +8.3546404e+01 </wgt>
<wgt id='1917'> +8.3488837e+01 </wgt>
<wgt id='1918'> +8.3641296e+01 </wgt>
<wgt id='1919'> +8.3549232e+01 </wgt>
<wgt id='1920'> +8.3387272e+01 </wgt>
<wgt id='1921'> +8.3528104e+01 </wgt>
<wgt id='1922'> +8.3540013e+01 </wgt>
<wgt id='1923'> +8.3601179e+01 </wgt>
<wgt id='1924'> +8.3584664e+01 </wgt>
<wgt id='1925'> +8.3547306e+01 </wgt>
<wgt id='1926'> +8.3568192e+01 </wgt>
<wgt id='1927'> +8.3623109e+01 </wgt>
<wgt id='1928'> +8.3555503e+01 </wgt>
<wgt id='1929'> +8.3525669e+01 </wgt>
<wgt id='1930'> +8.3540723e+01 </wgt>
<wgt id='1931'> +8.3609282e+01 </wgt>
<wgt id='1932'> +8.3574677e+01 </wgt>
<wgt id='1933'> +8.3567651e+01 </wgt>
<wgt id='1934'> +8.3616295e+01 </wgt>
<wgt id='1935'> +8.3629548e+01 </wgt>
<wgt id='1936'> +8.3644205e+01 </wgt>
<wgt id='1937'> +8.3594536e+01 </wgt>
<wgt id='1938'> +8.3606209e+01 </wgt>
<wgt id='1939'> +8.3554181e+01 </wgt>
<wgt id='1940'> +8.3588285e+01 </wgt>
<wgt id='1941'> +8.3603972e+01 </wgt>
<wgt id='1942'> +8.3533628e+01 </wgt>
<wgt id='1943'> +8.3565986e+01 </wgt>
<wgt id='1944'> +8.3581629e+01 </wgt>
<wgt id='1945'> +8.3600992e+01 </wgt>
<wgt id='1946'> +8.3556622e+01 </wgt>
<wgt id='1947'> +8.3541418e+01 </wgt>
<wgt id='1948'> +8.3601423e+01 </wgt>
<wgt id='1949'> +8.3546177e+01 </wgt>
<wgt id='1950'> +8.3507195e+01 </wgt>
<wgt id='1951'> +8.3567593e+01 </wgt>
<wgt id='1952'> +8.3588557e+01 </wgt>
<wgt id='1953'> +8.3629762e+01 </wgt>
<wgt id='1954'> +8.3543967e+01 </wgt>
<wgt id='1955'> +8.3523965e+01 </wgt>
<wgt id='1956'> +8.3569920e+01 </wgt>
<wgt id='1957'> +8.3570616e+01 </wgt>
<wgt id='1958'> +8.3570141e+01 </wgt>
<wgt id='1959'> +8.3570191e+01 </wgt>
<wgt id='1960'> +8.3570358e+01 </wgt>
<wgt id='1961'> +8.3570101e+01 </wgt>
<wgt id='1962'> +8.3570585e+01 </wgt>
</rwgt>
</event>
<event npLO=" -1 " npNLO=" 1 ">
 7      1 +1.5146096e+02 1.89013640e+01 7.54677110e-03 1.46872850e-01
       -3 -1    0    0    0  501 +0.0000000000e+00 +0.0000000000e+00 +8.8541569000e+01 8.8541569000e+01 0.0000000000e+00 0.0000e+00 9.0000e+00
        3 -1    0    0  502    0 +0.0000000000e+00 +0.0000000000e+00 -5.3238927000e+01 5.3238927000e+01 0.0000000000e+00 0.0000e+00 9.0000e+00
       23  2    1    2    0    0 -1.9189003000e+01 +3.5315646000e+00 +5.8661270000e+01 1.1134507000e+02 9.2606099000e+01 0.0000e+00 0.0000e+00
       13  1    3    3    0    0 +1.9589696000e+01 -2.4608644000e+01 +4.4578954000e+01 5.4558452000e+01 0.0000000000e+00 0.0000e+00 9.0000e+00
      -13  1    3    3    0    0 -2.8635663000e+01 +1.0616922000e+01 -2.4622199000e+00 3.0639562000e+01 0.0000000000e+00 0.0000e+00 9.0000e+00
       22  1    3    3    0    0 -1.0143037000e+01 +1.7523286000e+01 +1.6544536000e+01 2.6147053000e+01 0.0000000000e+00 0.0000e+00 9.0000e+00
       21  1    1    2  502  501 +1.9189003000e+01 -3.5315646000e+00 -2.3358628000e+01 3.0435429000e+01 0.0000000000e+00 0.0000e+00 9.0000e+00
#aMCatNLO 1  0  0  6  2 0.67747800E+01 0.00000000E+00 -9  7  0 0.00000000E+00 0.00000000E+00 0.00000000E+00 0.00000000E+00 0.00000000E+00
<rwgt>
<wgt id='1001'> +1.5146000e+02 </wgt>
<wgt id='1002'> +1.5146000e+02 </wgt>
<wgt id='1003'> +1.3068000e+02 </wgt>
<wgt id='1004'> +1.3505000e+02 </wgt>
<wgt id='1005'> +1.2401000e+02 </wgt>
<wgt id='1006'> +1.3786000e+02 </wgt>
<wgt id='1007'> +1.2294000e+02 </wgt>
<wgt id='1008'> +1.6523000e+02 </wgt>
<wgt id='1009'> +1.4025000e+02 </wgt>
<wgt id='1010'> +1.5105000e+02 </wgt>
<wgt id='1011'> +1.5658000e+02 </wgt>
<wgt id='1012'> +2.2402000e+02 </wgt>
<wgt id='1013'> +1.7086000e+02 </wgt>
<wgt id='1014'> +1.4357000e+02 </wgt>
<wgt id='1015'> +1.3513000e+02 </wgt>
<wgt id='1016'> +1.5878000e+02 </wgt>
<wgt id='1017'> +1.6738000e+02 </wgt>
<wgt id='1018'> +1.5578000e+02 </wgt>
<wgt id='1019'> +1.7177000e+02 </wgt>
<wgt id='1020'> +1.6424000e+02 </wgt>
<wgt id='1021'> +1.4257000e+02 </wgt>
<wgt id='1022'> +1.2328000e+02 </wgt>
<wgt id='1023'> +1.2837000e+02 </wgt>
<wgt id='1024'> +1.5497000e+02 </wgt>
<wgt id='1025'> +1.5295000e+02 </wgt>
<wgt id='1026'> +1.2331000e+02 </wgt>
<wgt id='1027'> +1.3292000e+02 </wgt>
<wgt id='1028'> +1.8634000e+02 </wgt>
<wgt id='1029'> +1.3447000e+02 </wgt>
<wgt id='1030'> +1.4975000e+02 </wgt>
<wgt id='1031'> +1.2990000e+02 </wgt>
<wgt id='1032'> +1.3348000e+02 </wgt>
<wgt id='1033'> +1.2701000e+02 </wgt>
<wgt id='1034'> +2.2284000e+02 </wgt>
<wgt id='1035'> +1.5928000e+02 </wgt>
<wgt id='1036'> +1.6765000e+02 </wgt>
<wgt id='1037'> +1.3133000e+02 </wgt>
<wgt id='1038'> +1.3258000e+02 </wgt>
<wgt id='1039'> +1.4512000e+02 </wgt>
<wgt id='1040'> +1.7208000e+02 </wgt>
<wgt id='1041'> +1.4174000e+02 </wgt>
<wgt id='1042'> +1.3840000e+02 </wgt>
<wgt id='1043'> +1.4450000e+02 </wgt>
<wgt id='1044'> +1.4636000e+02 </wgt>
<wgt id='1045'> +1.4849000e+02 </wgt>
<wgt id='1046'> +1.6743000e+02 </wgt>
<wgt id='1047'> +1.6646000e+02 </wgt>
<wgt id='1048'> +1.4365000e+02 </wgt>
<wgt id='1049'> +1.7790000e+02 </wgt>
<wgt id='1050'> +1.5657000e+02 </wgt>
<wgt id='1051'> +1.3589000e+02 </wgt>
<wgt id='1052'> +1.2934000e+02 </wgt>
<wgt id='1053'> +1.4407000e+02 </wgt>
<wgt id='1054'> +1.5296000e+02 </wgt>
<wgt id='1055'> +2.2162000e+02 </wgt>
<wgt id='1056'> +1.5767000e+02 </wgt>
<wgt id='1057'> +1.5479000e+02 </wgt>
<wgt id='1058'> +1.5480000e+02 </wgt>
<wgt id='1059'> +1.2570000e+02 </wgt>
<wgt id='1060'> +1.3687000e+02 </wgt>
<wgt id='1061'> +1.4053000e+02 </wgt>
<wgt id='1062'> +1.5105000e+02 </wgt>
<wgt id='1063'> +1.4873000e+02 </wgt>
<wgt id='1064'> +1.3565000e+02 </wgt>
<wgt id='1065'> +1.5105000e+02 </wgt>
<wgt id='1066'> +1.7879000e+02 </wgt>
<wgt id='1067'> +1.5093000e+02 </wgt>
<wgt id='1068'> +1.4637000e+02 </wgt>
<wgt id='1069'> +2.1822000e+02 </wgt>
<wgt id='1070'> +1.5173000e+02 </wgt>
<wgt id='1071'> +1.6566000e+02 </wgt>
<wgt id='1072'> +1.4685000e+02 </wgt>
<wgt id='1073'> +1.7006000e+02 </wgt>
<wgt id='1074'> +2.0735000e+02 </wgt>
<wgt id='1075'> +1.9896000e+02 </wgt>
<wgt id='1076'> +1.5208000e+02 </wgt>
<wgt id='1077'> +1.3353000e+02 </wgt>
<wgt id='1078'> +1.8540000e+02 </wgt>
<wgt id='1079'> +1.5833000e+02 </wgt>
<wgt id='1080'> +1.5161000e+02 </wgt>
<wgt id='1081'> +1.6510000e+02 </wgt>
<wgt id='1082'> +1.3994000e+02 </wgt>
<wgt id='1083'> +1.5247000e+02 </wgt>
<wgt id='1084'> +1.3265000e+02 </wgt>
<wgt id='1085'> +1.5450000e+02 </wgt>
<wgt id='1086'> +1.3767000e+02 </wgt>
<wgt id='1087'> +1.3835000e+02 </wgt>
<wgt id='1088'> +1.5171000e+02 </wgt>
<wgt id='1089'> +1.5141000e+02 </wgt>
<wgt id='1090'> +1.3449000e+02 </wgt>
<wgt id='1091'> +1.4902000e+02 </wgt>
<wgt id='1092'> +1.3639000e+02 </wgt>
<wgt id='1093'> +1.3659000e+02 </wgt>
<wgt id='1094'> +1.5542000e+02 </wgt>
<wgt id='1095'> +1.4977000e+02 </wgt>
<wgt id='1096'> +1.5566000e+02 </wgt>
<wgt id='1097'> +1.4337000e+02 </wgt>
<wgt id='1098'> +1.7404000e+02 </wgt>
<wgt id='1099'> +1.4996000e+02 </wgt>
<wgt id='1100'> +1.5087000e+02 </wgt>
<wgt id='1101'> +1.3285000e+02 </wgt>
<wgt id='1102'> +1.2430000e+02 </wgt>
<wgt id='1103'> +1.4389000e+02 </wgt>
<wgt id='1104'> +1.5386000e+02 </wgt>
<wgt id='1105'> +1.5146096e+02 </wgt>
<wgt id='1106'> +6.4737649e+01 </wgt>
<wgt id='1107'> +9.1217627e+01 </wgt>
<wgt id='1108'> +8.6070139e+01 </wgt>
<wgt id='1109'> +7.3603269e+01 </wgt>
<wgt id='1110'> +1.0362569e+02 </wgt>
<wgt id='1111'> +6.4171790e+01 </wgt>
<wgt id='1112'> +5.4837762e+01 </wgt>
<wgt id='1113'> +7.7327654e+01 </wgt>
<wgt id='1114'> +9.6926681e+01 </wgt>
<wgt id='1115'> +6.5953544e+01 </wgt>
<wgt id='1116'> +9.7544495e+01 </wgt>
<wgt id='1117'> +1.0319969e+02 </wgt>
<wgt id='1118'> +1.0000344e+02 </wgt>
<wgt id='1119'> +9.9705833e+01 </wgt>
<wgt id='1120'> +7.3868642e+01 </wgt>
<wgt id='1121'> +8.6384716e+01 </wgt>
<wgt id='1122'> +1.1685612e+02 </wgt>
<wgt id='1123'> +1.0005507e+02 </wgt>
<wgt id='1124'> +9.0687944e+01 </wgt>
<wgt id='1125'> +9.5821962e+01 </wgt>
<wgt id='1126'> +1.1102680e+02 </wgt>
<wgt id='1127'> +1.0348152e+02 </wgt>
<wgt id='1128'> +1.0252645e+02 </wgt>
<wgt id='1129'> +8.9738273e+01 </wgt>
<wgt id='1130'> +9.1069378e+01 </wgt>
<wgt id='1131'> +8.0667333e+01 </wgt>
<wgt id='1132'> +1.0505215e+02 </wgt>
<wgt id='1133'> +1.0326784e+02 </wgt>
<wgt id='1134'> +1.1642500e+02 </wgt>
<wgt id='1135'> +9.8688316e+01 </wgt>
<wgt id='1136'> +9.9380804e+01 </wgt>
<wgt id='1137'> +8.7884343e+01 </wgt>
<wgt id='1138'> +1.1678103e+02 </wgt>
<wgt id='1139'> +1.1087734e+02 </wgt>
<wgt id='1140'> +9.2096950e+01 </wgt>
<wgt id='1141'> +8.9427101e+01 </wgt>
<wgt id='1142'> +1.0511701e+02 </wgt>
<wgt id='1143'> +9.2737069e+01 </wgt>
<wgt id='1144'> +8.2687864e+01 </wgt>
<wgt id='1145'> +8.4021564e+01 </wgt>
<wgt id='1146'> +9.9320793e+01 </wgt>
<wgt id='1147'> +9.2430313e+01 </wgt>
<wgt id='1148'> +1.2298756e+02 </wgt>
<wgt id='1149'> +9.3142563e+01 </wgt>
<wgt id='1150'> +1.0401607e+02 </wgt>
<wgt id='1151'> +9.8834752e+01 </wgt>
<wgt id='1152'> +9.9115236e+01 </wgt>
<wgt id='1153'> +9.4042355e+01 </wgt>
<wgt id='1154'> +9.0975552e+01 </wgt>
<wgt id='1155'> +9.8112013e+01 </wgt>
<wgt id='1156'> +9.4909512e+01 </wgt>
<wgt id='1157'> +9.2385238e+01 </wgt>
<wgt id='1158'> +8.3991487e+01 </wgt>
<wgt id='1159'> +9.7687516e+01 </wgt>
<wgt id='1160'> +9.2478207e+01 </wgt>
<wgt id='1161'> +1.0532181e+02 </wgt>
<wgt id='1162'> +1.0937375e+02 </wgt>
<wgt id='1163'> +8.9172676e+01 </wgt>
<wgt id='1164'> +9.0887795e+01 </wgt>
<wgt id='1165'> +1.0353392e+02 </wgt>
<wgt id='1166'> +9.3528552e+01 </wgt>
<wgt id='1167'> +1.0579111e+02 </wgt>
<wgt id='1168'> +8.6808781e+01 </wgt>
<wgt id='1169'> +1.0564082e+02 </wgt>
<wgt id='1170'> +1.0110848e+02 </wgt>
<wgt id='1171'> +9.7442804e+01 </wgt>
<wgt id='1172'> +1.0519838e+02 </wgt>
<wgt id='1173'> +9.1028064e+01 </wgt>
<wgt id='1174'> +8.5797601e+01 </wgt>
<wgt id='1175'> +8.2303475e+01 </wgt>
<wgt id='1176'> +9.8272587e+01 </wgt>
<wgt id='1177'> +1.0052237e+02 </wgt>
<wgt id='1178'> +1.1628555e+02 </wgt>
<wgt id='1179'> +9.0591351e+01 </wgt>
<wgt id='1180'> +9.4810500e+01 </wgt>
<wgt id='1181'> +8.8496306e+01 </wgt>
<wgt id='1182'> +8.2593367e+01 </wgt>
<wgt id='1183'> +9.7004930e+01 </wgt>
<wgt id='1184'> +9.9257990e+01 </wgt>
<wgt id='1185'> +9.1264299e+01 </wgt>
<wgt id='1186'> +8.2871403e+01 </wgt>
<wgt id='1187'> +1.0634315e+02 </wgt>
<wgt id='1188'> +1.0712995e+02 </wgt>
<wgt id='1189'> +1.0432428e+02 </wgt>
<wgt id='1190'> +8.7129808e+01 </wgt>
<wgt id='1191'> +9.6961378e+01 </wgt>
<wgt id='1192'> +9.6823862e+01 </wgt>
<wgt id='1193'> +1.0477491e+02 </wgt>
<wgt id='1194'> +9.0180394e+01 </wgt>
<wgt id='1195'> +1.0479927e+02 </wgt>
<wgt id='1196'> +9.1069378e+01 </wgt>
<wgt id='1197'> +9.5319264e+01 </wgt>
<wgt id='1198'> +1.1066889e+02 </wgt>
<wgt id='1199'> +9.5542812e+01 </wgt>
<wgt id='1200'> +9.3353581e+01 </wgt>
<wgt id='1201'> +1.1681605e+02 </wgt>
<wgt id='1202'> +8.0095748e+01 </wgt>
<wgt id='1203'> +1.1239772e+02 </wgt>
<wgt id='1204'> +1.0193996e+02 </wgt>
<wgt id='1205'> +1.0711179e+02 </wgt>
<wgt id='1206'> +1.1088059e+02 </wgt>
<wgt id='1207'> +1.0274641e+02 </wgt>
<wgt id='1208'> +8.2596723e+01 </wgt>
<wgt id='1209'> +1.0060174e+02 </wgt>
<wgt id='1210'> +1.0239038e+02 </wgt>
<wgt id='1211'> +8.4870119e+01 </wgt>
<wgt id='1212'> +8.9227380e+01 </wgt>
<wgt id='1213'> +1.0205927e+02 </wgt>
<wgt id='1214'> +9.5290354e+01 </wgt>
<wgt id='1215'> +8.0999148e+01 </wgt>
<wgt id='1216'> +9.0141966e+01 </wgt>
<wgt id='1217'> +9.0639518e+01 </wgt>
<wgt id='1218'> +8.9751098e+01 </wgt>
<wgt id='1219'> +8.9588913e+01 </wgt>
<wgt id='1220'> +8.8624745e+01 </wgt>
<wgt id='1221'> +8.8898826e+01 </wgt>
<wgt id='1222'> +9.1348993e+01 </wgt>
<wgt id='1223'> +8.9043922e+01 </wgt>
<wgt id='1224'> +9.1078362e+01 </wgt>
<wgt id='1225'> +8.9591926e+01 </wgt>
<wgt id='1226'> +9.4420206e+01 </wgt>
<wgt id='1227'> +9.0801991e+01 </wgt>
<wgt id='1228'> +8.7924829e+01 </wgt>
<wgt id='1229'> +9.0298377e+01 </wgt>
<wgt id='1230'> +8.7234273e+01 </wgt>
<wgt id='1231'> +9.3723665e+01 </wgt>
<wgt id='1232'> +8.6605190e+01 </wgt>
<wgt id='1233'> +9.0656987e+01 </wgt>
<wgt id='1234'> +8.8270853e+01 </wgt>
<wgt id='1235'> +9.2080043e+01 </wgt>
<wgt id='1236'> +9.3454178e+01 </wgt>
<wgt id='1237'> +8.6901624e+01 </wgt>
<wgt id='1238'> +8.9523330e+01 </wgt>
<wgt id='1239'> +9.0528773e+01 </wgt>
<wgt id='1240'> +8.9659922e+01 </wgt>
<wgt id='1241'> +9.1787163e+01 </wgt>
<wgt id='1242'> +9.0058036e+01 </wgt>
<wgt id='1243'> +9.1279087e+01 </wgt>
<wgt id='1244'> +9.0577553e+01 </wgt>
<wgt id='1245'> +9.0650760e+01 </wgt>
<wgt id='1246'> +8.9534026e+01 </wgt>
<wgt id='1247'> +8.9848714e+01 </wgt>
<wgt id='1248'> +9.0239182e+01 </wgt>
<wgt id='1249'> +8.8880860e+01 </wgt>
<wgt id='1250'> +9.1093157e+01 </wgt>
<wgt id='1251'> +9.0238905e+01 </wgt>
<wgt id='1252'> +9.0137605e+01 </wgt>
<wgt id='1253'> +9.0295067e+01 </wgt>
<wgt id='1254'> +9.0676014e+01 </wgt>
<wgt id='1255'> +8.9702212e+01 </wgt>
<wgt id='1256'> +8.9654495e+01 </wgt>
<wgt id='1257'> +8.9900326e+01 </wgt>
<wgt id='1258'> +9.0133182e+01 </wgt>
<wgt id='1259'> +8.9900947e+01 </wgt>
<wgt id='1260'> +9.0003485e+01 </wgt>
<wgt id='1261'> +9.0185991e+01 </wgt>
<wgt id='1262'> +9.0146131e+01 </wgt>
<wgt id='1263'> +9.0481649e+01 </wgt>
<wgt id='1264'> +8.9967747e+01 </wgt>
<wgt id='1265'> +9.0232271e+01 </wgt>
<wgt id='1266'> +9.0735839e+01 </wgt>
<wgt id='1267'> +9.0391041e+01 </wgt>
<wgt id='1268'> +8.9845214e+01 </wgt>
<wgt id='1269'> +8.9861061e+01 </wgt>
<wgt id='1270'> +9.0405585e+01 </wgt>
<wgt id='1271'> +9.0169242e+01 </wgt>
<wgt id='1272'> +9.0365906e+01 </wgt>
<wgt id='1273'> +9.0030028e+01 </wgt>
<wgt id='1274'> +8.9953068e+01 </wgt>
<wgt id='1275'> +9.0044739e+01 </wgt>
<wgt id='1276'> +9.0098990e+01 </wgt>
<wgt id='1277'> +9.0316778e+01 </wgt>
<wgt id='1278'> +9.0376077e+01 </wgt>
<wgt id='1279'> +9.0224454e+01 </wgt>
<wgt id='1280'> +8.9883746e+01 </wgt>
<wgt id='1281'> +9.0099030e+01 </wgt>
<wgt id='1282'> +9.0134595e+01 </wgt>
<wgt id='1283'> +9.0048870e+01 </wgt>
<wgt id='1284'> +9.0044587e+01 </wgt>
<wgt id='1285'> +9.0002872e+01 </wgt>
<wgt id='1286'> +9.0018988e+01 </wgt>
<wgt id='1287'> +9.0134381e+01 </wgt>
<wgt id='1288'> +9.0091137e+01 </wgt>
<wgt id='1289'> +9.0179441e+01 </wgt>
<wgt id='1290'> +9.0363433e+01 </wgt>
<wgt id='1291'> +9.0204586e+01 </wgt>
<wgt id='1292'> +9.0136217e+01 </wgt>
<wgt id='1293'> +9.0199072e+01 </wgt>
<wgt id='1294'> +9.0084722e+01 </wgt>
<wgt id='1295'> +9.0334858e+01 </wgt>
<wgt id='1296'> +9.0229537e+01 </wgt>
<wgt id='1297'> +9.0123426e+01 </wgt>
<wgt id='1298'> +9.0036241e+01 </wgt>
<wgt id='1299'> +9.0161753e+01 </wgt>
<wgt id='1300'> +9.0169810e+01 </wgt>
<wgt id='1301'> +9.0082200e+01 </wgt>
<wgt id='1302'> +9.0171277e+01 </wgt>
<wgt id='1303'> +9.0074361e+01 </wgt>
<wgt id='1304'> +9.0151075e+01 </wgt>
<wgt id='1305'> +9.0112996e+01 </wgt>
<wgt id='1306'> +9.0069054e+01 </wgt>
<wgt id='1307'> +9.0101206e+01 </wgt>
<wgt id='1308'> +9.0173350e+01 </wgt>
<wgt id='1309'> +9.0120666e+01 </wgt>
<wgt id='1310'> +9.0167667e+01 </wgt>
<wgt id='1311'> +9.0181530e+01 </wgt>
<wgt id='1312'> +9.0257544e+01 </wgt>
<wgt id='1313'> +9.0200424e+01 </wgt>
<wgt id='1314'> +9.0013859e+01 </wgt>
<wgt id='1315'> +9.0014785e+01 </wgt>
<wgt id='1316'> +9.0264037e+01 </wgt>
<wgt id='1317'> +8.5517957e+01 </wgt>
<wgt id='1318'> +9.4539013e+01 </wgt>
<wgt id='1319'> +1.3175206e+01 </wgt>
<wgt id='1320'> +8.3170101e+01 </wgt>
<wgt id='1321'> +8.3588408e+01 </wgt>
<wgt id='1322'> +8.3494616e+01 </wgt>
<wgt id='1323'> +8.7473783e+01 </wgt>
<wgt id='1324'> +8.0836386e+01 </wgt>
<wgt id='1325'> +8.4891379e+01 </wgt>
<wgt id='1326'> +8.2185188e+01 </wgt>
<wgt id='1327'> +8.5421937e+01 </wgt>
<wgt id='1328'> +8.1797139e+01 </wgt>
<wgt id='1329'> +8.1216876e+01 </wgt>
<wgt id='1330'> +8.4438076e+01 </wgt>
<wgt id='1331'> +8.0923803e+01 </wgt>
<wgt id='1332'> +8.5099432e+01 </wgt>
<wgt id='1333'> +8.2962803e+01 </wgt>
<wgt id='1334'> +8.2318244e+01 </wgt>
<wgt id='1335'> +6.7325869e+01 </wgt>
<wgt id='1336'> +1.0194880e+02 </wgt>
<wgt id='1337'> +8.1242260e+01 </wgt>
<wgt id='1338'> +8.5350303e+01 </wgt>
<wgt id='1339'> +8.2503421e+01 </wgt>
<wgt id='1340'> +8.3798666e+01 </wgt>
<wgt id='1341'> +8.1382720e+01 </wgt>
<wgt id='1342'> +8.6559456e+01 </wgt>
<wgt id='1343'> +8.2873046e+01 </wgt>
<wgt id='1344'> +8.3305663e+01 </wgt>
<wgt id='1345'> +8.2696190e+01 </wgt>
<wgt id='1346'> +8.3652584e+01 </wgt>
<wgt id='1347'> +8.3262735e+01 </wgt>
<wgt id='1348'> +8.2914323e+01 </wgt>
<wgt id='1349'> +8.3235660e+01 </wgt>
<wgt id='1350'> +8.3136238e+01 </wgt>
<wgt id='1351'> +8.3254361e+01 </wgt>
<wgt id='1352'> +8.3016530e+01 </wgt>
<wgt id='1353'> +8.3196682e+01 </wgt>
<wgt id='1354'> +8.2990240e+01 </wgt>
<wgt id='1355'> +8.4684561e+01 </wgt>
<wgt id='1356'> +8.1727687e+01 </wgt>
<wgt id='1357'> +8.3326996e+01 </wgt>
<wgt id='1358'> +8.1972715e+01 </wgt>
<wgt id='1359'> +8.3761607e+01 </wgt>
<wgt id='1360'> +8.0216523e+01 </wgt>
<wgt id='1361'> +8.3260090e+01 </wgt>
<wgt id='1362'> +8.3303711e+01 </wgt>
<wgt id='1363'> +8.2790929e+01 </wgt>
<wgt id='1364'> +8.3120567e+01 </wgt>
<wgt id='1365'> +7.8908346e+01 </wgt>
<wgt id='1366'> +8.5030309e+01 </wgt>
<wgt id='1367'> +8.1529806e+01 </wgt>
<wgt id='1368'> +8.3771906e+01 </wgt>
<wgt id='1369'> +8.4939252e+01 </wgt>
<wgt id='1370'> +7.8487151e+01 </wgt>
<wgt id='1371'> +8.2222540e+01 </wgt>
<wgt id='1372'> +8.2007436e+01 </wgt>
<wgt id='1373'> +8.0188878e+01 </wgt>
<wgt id='1374'> +8.3681589e+01 </wgt>
<wgt id='1375'> +9.1542478e+01 </wgt>
<wgt id='1376'> +6.8692095e+01 </wgt>
<wgt id='1377'> +7.8512862e+01 </wgt>
<wgt id='1378'> +8.7601407e+01 </wgt>
<wgt id='1379'> +8.6854102e+01 </wgt>
<wgt id='1380'> +8.1962562e+01 </wgt>
<wgt id='1381'> +9.1164407e+01 </wgt>
<wgt id='1382'> +5.8394743e+01 </wgt>
<wgt id='1383'> +8.5616485e+01 </wgt>
<wgt id='1384'> +9.0849225e+01 </wgt>
<wgt id='1385'> +9.4061726e+01 </wgt>
<wgt id='1386'> +9.4368388e+01 </wgt>
<wgt id='1387'> +9.3716205e+01 </wgt>
<wgt id='1388'> +9.3335657e+01 </wgt>
<wgt id='1389'> +9.5302276e+01 </wgt>
<wgt id='1390'> +9.4191980e+01 </wgt>
<wgt id='1391'> +9.3903481e+01 </wgt>
<wgt id='1392'> +9.4450089e+01 </wgt>
<wgt id='1393'> +9.3788795e+01 </wgt>
<wgt id='1394'> +9.3547712e+01 </wgt>
<wgt id='1395'> +9.4693635e+01 </wgt>
<wgt id='1396'> +9.3039710e+01 </wgt>
<wgt id='1397'> +9.4586429e+01 </wgt>
<wgt id='1398'> +9.3638385e+01 </wgt>
<wgt id='1399'> +9.4360456e+01 </wgt>
<wgt id='1400'> +9.4348389e+01 </wgt>
<wgt id='1401'> +9.3821773e+01 </wgt>
<wgt id='1402'> +9.3107901e+01 </wgt>
<wgt id='1403'> +9.4499367e+01 </wgt>
<wgt id='1404'> +9.5984414e+01 </wgt>
<wgt id='1405'> +9.3117394e+01 </wgt>
<wgt id='1406'> +9.7893256e+01 </wgt>
<wgt id='1407'> +8.7391183e+01 </wgt>
<wgt id='1408'> +9.8220913e+01 </wgt>
<wgt id='1409'> +8.5979112e+01 </wgt>
<wgt id='1410'> +9.4800919e+01 </wgt>
<wgt id='1411'> +9.2159470e+01 </wgt>
<wgt id='1412'> +9.2191725e+01 </wgt>
<wgt id='1413'> +9.6406467e+01 </wgt>
<wgt id='1414'> +9.3703257e+01 </wgt>
<wgt id='1415'> +9.4350844e+01 </wgt>
<wgt id='1416'> +9.4493885e+01 </wgt>
<wgt id='1417'> +9.3797859e+01 </wgt>
<wgt id='1418'> +9.4009645e+01 </wgt>
<wgt id='1419'> +9.4147383e+01 </wgt>
<wgt id='1420'> +9.3993983e+01 </wgt>
<wgt id='1421'> +9.3604067e+01 </wgt>
<wgt id='1422'> +9.2451844e+01 </wgt>
<wgt id='1423'> +9.5735631e+01 </wgt>
<wgt id='1424'> +9.3845613e+01 </wgt>
<wgt id='1425'> +9.4046200e+01 </wgt>
<wgt id='1426'> +9.0428291e+01 </wgt>
<wgt id='1427'> +9.3042486e+01 </wgt>
<wgt id='1428'> +9.1509364e+01 </wgt>
<wgt id='1429'> +9.5900693e+01 </wgt>
<wgt id='1430'> +9.1877727e+01 </wgt>
<wgt id='1431'> +9.0628727e+01 </wgt>
<wgt id='1432'> +9.2571279e+01 </wgt>
<wgt id='1433'> +8.9104027e+01 </wgt>
<wgt id='1434'> +9.3137185e+01 </wgt>
<wgt id='1435'> +9.4289193e+01 </wgt>
<wgt id='1436'> +7.6823425e+01 </wgt>
<wgt id='1437'> +7.6826838e+01 </wgt>
<wgt id='1438'> +7.6850746e+01 </wgt>
<wgt id='1439'> +7.6830134e+01 </wgt>
<wgt id='1440'> +7.6534200e+01 </wgt>
<wgt id='1441'> +7.5658041e+01 </wgt>
<wgt id='1442'> +7.5570121e+01 </wgt>
<wgt id='1443'> +7.6832575e+01 </wgt>
<wgt id='1444'> +7.6489295e+01 </wgt>
<wgt id='1445'> +7.5950574e+01 </wgt>
<wgt id='1446'> +7.7303975e+01 </wgt>
<wgt id='1447'> +7.6758079e+01 </wgt>
<wgt id='1448'> +7.7381140e+01 </wgt>
<wgt id='1449'> +7.6831965e+01 </wgt>
<wgt id='1450'> +7.7690724e+01 </wgt>
<wgt id='1451'> +7.7019542e+01 </wgt>
<wgt id='1452'> +7.6338958e+01 </wgt>
<wgt id='1453'> +7.6841961e+01 </wgt>
<wgt id='1454'> +7.7120863e+01 </wgt>
<wgt id='1455'> +7.6447863e+01 </wgt>
<wgt id='1456'> +7.6918064e+01 </wgt>
<wgt id='1457'> +7.5713364e+01 </wgt>
<wgt id='1458'> +7.8329685e+01 </wgt>
<wgt id='1459'> +7.6669476e+01 </wgt>
<wgt id='1460'> +7.7220554e+01 </wgt>
<wgt id='1461'> +7.7604932e+01 </wgt>
<wgt id='1462'> +7.6907458e+01 </wgt>
<wgt id='1463'> +7.6583789e+01 </wgt>
<wgt id='1464'> +7.7217504e+01 </wgt>
<wgt id='1465'> +9.8208131e+01 </wgt>
<wgt id='1466'> +8.1278648e+01 </wgt>
<wgt id='1467'> +8.1672066e+01 </wgt>
<wgt id='1468'> +8.2466705e+01 </wgt>
<wgt id='1469'> +7.4440458e+01 </wgt>
<wgt id='1470'> +8.3453846e+01 </wgt>
<wgt id='1471'> +8.0582353e+01 </wgt>
<wgt id='1472'> +8.2999440e+01 </wgt>
<wgt id='1473'> +8.1821355e+01 </wgt>
<wgt id='1474'> +8.5715703e+01 </wgt>
<wgt id='1475'> +7.9947245e+01 </wgt>
<wgt id='1476'> +7.8441541e+01 </wgt>
<wgt id='1477'> +8.6220067e+01 </wgt>
<wgt id='1478'> +8.0234282e+01 </wgt>
<wgt id='1479'> +7.9982663e+01 </wgt>
<wgt id='1480'> +8.4435623e+01 </wgt>
<wgt id='1481'> +7.9415526e+01 </wgt>
<wgt id='1482'> +8.5615929e+01 </wgt>
<wgt id='1483'> +7.8180849e+01 </wgt>
<wgt id='1484'> +7.9671674e+01 </wgt>
<wgt id='1485'> +8.2409136e+01 </wgt>
<wgt id='1486'> +8.2579612e+01 </wgt>
<wgt id='1487'> +8.1428727e+01 </wgt>
<wgt id='1488'> +8.1430433e+01 </wgt>
<wgt id='1489'> +8.0204700e+01 </wgt>
<wgt id='1490'> +8.1526265e+01 </wgt>
<wgt id='1491'> +8.2370821e+01 </wgt>
<wgt id='1492'> +8.0863179e+01 </wgt>
<wgt id='1493'> +8.1704632e+01 </wgt>
<wgt id='1494'> +8.1023682e+01 </wgt>
<wgt id='1495'> +8.0959841e+01 </wgt>
<wgt id='1496'> +8.1183724e+01 </wgt>
<wgt id='1497'> +8.1142442e+01 </wgt>
<wgt id='1498'> +8.1572273e+01 </wgt>
<wgt id='1499'> +8.1261719e+01 </wgt>
<wgt id='1500'> +8.1489075e+01 </wgt>
<wgt id='1501'> +8.1874543e+01 </wgt>
<wgt id='1502'> +8.0723900e+01 </wgt>
<wgt id='1503'> +8.1361924e+01 </wgt>
<wgt id='1504'> +8.0941207e+01 </wgt>
<wgt id='1505'> +8.1567718e+01 </wgt>
<wgt id='1506'> +8.1456356e+01 </wgt>
<wgt id='1507'> +8.1075312e+01 </wgt>
<wgt id='1508'> +8.1416503e+01 </wgt>
<wgt id='1509'> +8.1217980e+01 </wgt>
<wgt id='1510'> +8.1398546e+01 </wgt>
<wgt id='1511'> +8.1569865e+01 </wgt>
<wgt id='1512'> +8.1063588e+01 </wgt>
<wgt id='1513'> +8.1140758e+01 </wgt>
<wgt id='1514'> +8.1423977e+01 </wgt>
<wgt id='1515'> +8.1265758e+01 </wgt>
<wgt id='1516'> +8.1289170e+01 </wgt>
<wgt id='1517'> +8.1475849e+01 </wgt>
<wgt id='1518'> +8.1409897e+01 </wgt>
<wgt id='1519'> +8.1137351e+01 </wgt>
<wgt id='1520'> +8.1343152e+01 </wgt>
<wgt id='1521'> +8.1393305e+01 </wgt>
<wgt id='1522'> +8.1155144e+01 </wgt>
<wgt id='1523'> +8.1388660e+01 </wgt>
<wgt id='1524'> +8.1383896e+01 </wgt>
<wgt id='1525'> +8.1340331e+01 </wgt>
<wgt id='1526'> +8.1125821e+01 </wgt>
<wgt id='1527'> +8.1341341e+01 </wgt>
<wgt id='1528'> +8.1216953e+01 </wgt>
<wgt id='1529'> +8.1280856e+01 </wgt>
<wgt id='1530'> +8.1214400e+01 </wgt>
<wgt id='1531'> +8.1192727e+01 </wgt>
<wgt id='1532'> +8.1373903e+01 </wgt>
<wgt id='1533'> +8.1329652e+01 </wgt>
<wgt id='1534'> +8.1260145e+01 </wgt>
<wgt id='1535'> +8.1321155e+01 </wgt>
<wgt id='1536'> +8.1373736e+01 </wgt>
<wgt id='1537'> +8.1294507e+01 </wgt>
<wgt id='1538'> +8.1293781e+01 </wgt>
<wgt id='1539'> +8.1301313e+01 </wgt>
<wgt id='1540'> +8.1247653e+01 </wgt>
<wgt id='1541'> +8.1243407e+01 </wgt>
<wgt id='1542'> +8.1275343e+01 </wgt>
<wgt id='1543'> +8.1261952e+01 </wgt>
<wgt id='1544'> +8.1228352e+01 </wgt>
<wgt id='1545'> +8.1283986e+01 </wgt>
<wgt id='1546'> +8.1266697e+01 </wgt>
<wgt id='1547'> +8.1313549e+01 </wgt>
<wgt id='1548'> +8.1237193e+01 </wgt>
<wgt id='1549'> +8.1281913e+01 </wgt>
<wgt id='1550'> +8.1325566e+01 </wgt>
<wgt id='1551'> +8.1311256e+01 </wgt>
<wgt id='1552'> +8.1274950e+01 </wgt>
<wgt id='1553'> +8.1256676e+01 </wgt>
<wgt id='1554'> +8.1268319e+01 </wgt>
<wgt id='1555'> +8.1312322e+01 </wgt>
<wgt id='1556'> +8.1263115e+01 </wgt>
<wgt id='1557'> +8.1239992e+01 </wgt>
<wgt id='1558'> +8.1293575e+01 </wgt>
<wgt id='1559'> +8.1293564e+01 </wgt>
<wgt id='1560'> +8.1263993e+01 </wgt>
<wgt id='1561'> +8.1252923e+01 </wgt>
<wgt id='1562'> +8.1272570e+01 </wgt>
<wgt id='1563'> +8.1248996e+01 </wgt>
<wgt id='1564'> +8.1291790e+01 </wgt>
<wgt id='1565'> +8.1290619e+01 </wgt>
<wgt id='1566'> +8.1224968e+01 </wgt>
<wgt id='1567'> +7.8014884e+01 </wgt>
<wgt id='1568'> +8.5345094e+01 </wgt>
<wgt id='1569'> +8.6030720e+01 </wgt>
<wgt id='1570'> +8.7972033e+01 </wgt>
<wgt id='1571'> +8.6152631e+01 </wgt>
<wgt id='1572'> +8.5296819e+01 </wgt>
<wgt id='1573'> +8.2366790e+01 </wgt>
<wgt id='1574'> +8.1218764e+01 </wgt>
<wgt id='1575'> +8.2783788e+01 </wgt>
<wgt id='1576'> +8.4115456e+01 </wgt>
<wgt id='1577'> +8.6220776e+01 </wgt>
<wgt id='1578'> +8.5536064e+01 </wgt>
<wgt id='1579'> +8.9372427e+01 </wgt>
<wgt id='1580'> +7.8363133e+01 </wgt>
<wgt id='1581'> +8.3990290e+01 </wgt>
<wgt id='1582'> +8.4264344e+01 </wgt>
<wgt id='1583'> +8.4975681e+01 </wgt>
<wgt id='1584'> +8.5814411e+01 </wgt>
<wgt id='1585'> +8.4778954e+01 </wgt>
<wgt id='1586'> +8.9813275e+01 </wgt>
<wgt id='1587'> +8.2155385e+01 </wgt>
<wgt id='1588'> +8.7727914e+01 </wgt>
<wgt id='1589'> +8.7034759e+01 </wgt>
<wgt id='1590'> +8.6733761e+01 </wgt>
<wgt id='1591'> +8.7842934e+01 </wgt>
<wgt id='1592'> +8.8058901e+01 </wgt>
<wgt id='1593'> +8.4876420e+01 </wgt>
<wgt id='1594'> +8.5994985e+01 </wgt>
<wgt id='1595'> +8.5763548e+01 </wgt>
<wgt id='1596'> +8.6041632e+01 </wgt>
<wgt id='1597'> +8.6578235e+01 </wgt>
<wgt id='1598'> +8.5759590e+01 </wgt>
<wgt id='1599'> +8.6159344e+01 </wgt>
<wgt id='1600'> +8.5891677e+01 </wgt>
<wgt id='1601'> +8.6849444e+01 </wgt>
<wgt id='1602'> +8.5892400e+01 </wgt>
<wgt id='1603'> +8.6269837e+01 </wgt>
<wgt id='1604'> +8.6809231e+01 </wgt>
<wgt id='1605'> +8.5874057e+01 </wgt>
<wgt id='1606'> +8.5816111e+01 </wgt>
<wgt id='1607'> +8.6332955e+01 </wgt>
<wgt id='1608'> +8.6180451e+01 </wgt>
<wgt id='1609'> +8.5392409e+01 </wgt>
<wgt id='1610'> +8.5717949e+01 </wgt>
<wgt id='1611'> +8.5966618e+01 </wgt>
<wgt id='1612'> +8.5733526e+01 </wgt>
<wgt id='1613'> +8.5946550e+01 </wgt>
<wgt id='1614'> +8.5876279e+01 </wgt>
<wgt id='1615'> +8.5983912e+01 </wgt>
<wgt id='1616'> +8.5843358e+01 </wgt>
<wgt id='1617'> +8.6133851e+01 </wgt>
<wgt id='1618'> +8.6316311e+01 </wgt>
<wgt id='1619'> +8.5922010e+01 </wgt>
<wgt id='1620'> +8.5867538e+01 </wgt>
<wgt id='1621'> +8.6268818e+01 </wgt>
<wgt id='1622'> +8.6096929e+01 </wgt>
<wgt id='1623'> +8.5864767e+01 </wgt>
<wgt id='1624'> +8.6050007e+01 </wgt>
<wgt id='1625'> +8.6021059e+01 </wgt>
<wgt id='1626'> +8.6062357e+01 </wgt>
<wgt id='1627'> +8.5869673e+01 </wgt>
<wgt id='1628'> +8.5894013e+01 </wgt>
<wgt id='1629'> +8.6008111e+01 </wgt>
<wgt id='1630'> +8.6016784e+01 </wgt>
<wgt id='1631'> +8.5952044e+01 </wgt>
<wgt id='1632'> +8.5978961e+01 </wgt>
<wgt id='1633'> +8.6053110e+01 </wgt>
<wgt id='1634'> +8.6038903e+01 </wgt>
<wgt id='1635'> +8.6093469e+01 </wgt>
<wgt id='1636'> +8.6020450e+01 </wgt>
<wgt id='1637'> +8.6046422e+01 </wgt>
<wgt id='1638'> +8.6041064e+01 </wgt>
<wgt id='1639'> +8.5997367e+01 </wgt>
<wgt id='1640'> +8.6087142e+01 </wgt>
<wgt id='1641'> +8.6066741e+01 </wgt>
<wgt id='1642'> +8.6062801e+01 </wgt>
<wgt id='1643'> +8.6005958e+01 </wgt>
<wgt id='1644'> +8.6039513e+01 </wgt>
<wgt id='1645'> +8.6051884e+01 </wgt>
<wgt id='1646'> +8.6050884e+01 </wgt>
<wgt id='1647'> +8.6065622e+01 </wgt>
<wgt id='1648'> +8.6072058e+01 </wgt>
<wgt id='1649'> +8.6148715e+01 </wgt>
<wgt id='1650'> +8.6024523e+01 </wgt>
<wgt id='1651'> +8.6021074e+01 </wgt>
<wgt id='1652'> +8.5997694e+01 </wgt>
<wgt id='1653'> +8.5950114e+01 </wgt>
<wgt id='1654'> +8.6052422e+01 </wgt>
<wgt id='1655'> +8.6048446e+01 </wgt>
<wgt id='1656'> +8.5979095e+01 </wgt>
<wgt id='1657'> +8.6092759e+01 </wgt>
<wgt id='1658'> +8.6047403e+01 </wgt>
<wgt id='1659'> +8.6038016e+01 </wgt>
<wgt id='1660'> +8.6014372e+01 </wgt>
<wgt id='1661'> +8.6066286e+01 </wgt>
<wgt id='1662'> +8.6043185e+01 </wgt>
<wgt id='1663'> +8.6042354e+01 </wgt>
<wgt id='1664'> +8.6072323e+01 </wgt>
<wgt id='1665'> +8.5991975e+01 </wgt>
<wgt id='1666'> +8.6056072e+01 </wgt>
<wgt id='1667'> +8.6035215e+01 </wgt>
<wgt id='1668'> +8.6017074e+01 </wgt>
<wgt id='1669'> +8.5979963e+01 </wgt>
<wgt id='1670'> +8.2119728e+01 </wgt>
<wgt id='1671'> +8.9139397e+01 </wgt>
<wgt id='1672'> +8.1325471e+01 </wgt>
<wgt id='1673'> +7.9327015e+01 </wgt>
<wgt id='1674'> +9.0489237e+01 </wgt>
<wgt id='1675'> +8.1283514e+01 </wgt>
<wgt id='1676'> +8.2074390e+01 </wgt>
<wgt id='1677'> +8.1431196e+01 </wgt>
<wgt id='1678'> +8.2221265e+01 </wgt>
<wgt id='1679'> +8.1120290e+01 </wgt>
<wgt id='1680'> +8.1517997e+01 </wgt>
<wgt id='1681'> +7.9414260e+01 </wgt>
<wgt id='1682'> +8.1200709e+01 </wgt>
<wgt id='1683'> +8.7171229e+01 </wgt>
<wgt id='1684'> +8.1131747e+01 </wgt>
<wgt id='1685'> +8.0905285e+01 </wgt>
<wgt id='1686'> +8.3721985e+01 </wgt>
<wgt id='1687'> +8.1962833e+01 </wgt>
<wgt id='1688'> +8.1953148e+01 </wgt>
<wgt id='1689'> +8.0770245e+01 </wgt>
<wgt id='1690'> +8.0921750e+01 </wgt>
<wgt id='1691'> +8.1613385e+01 </wgt>
<wgt id='1692'> +8.0336810e+01 </wgt>
<wgt id='1693'> +8.2034990e+01 </wgt>
<wgt id='1694'> +8.0826401e+01 </wgt>
<wgt id='1695'> +8.0923526e+01 </wgt>
<wgt id='1696'> +8.1241283e+01 </wgt>
<wgt id='1697'> +8.1470887e+01 </wgt>
<wgt id='1698'> +7.9570079e+01 </wgt>
<wgt id='1699'> +8.1350773e+01 </wgt>
<wgt id='1700'> +8.0517654e+01 </wgt>
<wgt id='1701'> +8.2573615e+01 </wgt>
<wgt id='1702'> +8.1147245e+01 </wgt>
<wgt id='1703'> +7.8014884e+01 </wgt>
<wgt id='1704'> +8.5345094e+01 </wgt>
<wgt id='1705'> +8.6033863e+01 </wgt>
<wgt id='1706'> +9.1537610e+01 </wgt>
<wgt id='1707'> +8.1634987e+01 </wgt>
<wgt id='1708'> +8.6319816e+01 </wgt>
<wgt id='1709'> +9.0531060e+01 </wgt>
<wgt id='1710'> +8.5284679e+01 </wgt>
<wgt id='1711'> +8.6505595e+01 </wgt>
<wgt id='1712'> +8.6438715e+01 </wgt>
<wgt id='1713'> +8.7356260e+01 </wgt>
<wgt id='1714'> +9.0135454e+01 </wgt>
<wgt id='1715'> +8.6163283e+01 </wgt>
<wgt id='1716'> +8.1457074e+01 </wgt>
<wgt id='1717'> +8.5205729e+01 </wgt>
<wgt id='1718'> +8.5866028e+01 </wgt>
<wgt id='1719'> +8.6692471e+01 </wgt>
<wgt id='1720'> +8.6551550e+01 </wgt>
<wgt id='1721'> +8.6373150e+01 </wgt>
<wgt id='1722'> +8.6394331e+01 </wgt>
<wgt id='1723'> +8.6345557e+01 </wgt>
<wgt id='1724'> +8.7167192e+01 </wgt>
<wgt id='1725'> +8.5012415e+01 </wgt>
<wgt id='1726'> +8.5571288e+01 </wgt>
<wgt id='1727'> +8.3982314e+01 </wgt>
<wgt id='1728'> +8.5788130e+01 </wgt>
<wgt id='1729'> +8.4796344e+01 </wgt>
<wgt id='1730'> +8.7369780e+01 </wgt>
<wgt id='1731'> +8.6778594e+01 </wgt>
<wgt id='1732'> +8.4227510e+01 </wgt>
<wgt id='1733'> +8.4463189e+01 </wgt>
<wgt id='1734'> +8.7714905e+01 </wgt>
<wgt id='1735'> +8.3390125e+01 </wgt>
<wgt id='1736'> +8.2119728e+01 </wgt>
<wgt id='1737'> +8.9139397e+01 </wgt>
<wgt id='1738'> +9.4735862e+01 </wgt>
<wgt id='1739'> +9.4886346e+01 </wgt>
<wgt id='1740'> +9.4586363e+01 </wgt>
<wgt id='1741'> +9.4705185e+01 </wgt>
<wgt id='1742'> +9.4766357e+01 </wgt>
<wgt id='1743'> +9.4945527e+01 </wgt>
<wgt id='1744'> +9.4526560e+01 </wgt>
<wgt id='1745'> +9.4600421e+01 </wgt>
<wgt id='1746'> +9.4862484e+01 </wgt>
<wgt id='1747'> +9.5165520e+01 </wgt>
<wgt id='1748'> +9.4307689e+01 </wgt>
<wgt id='1749'> +9.4976125e+01 </wgt>
<wgt id='1750'> +9.4506180e+01 </wgt>
<wgt id='1751'> +9.4565846e+01 </wgt>
<wgt id='1752'> +9.4906287e+01 </wgt>
<wgt id='1753'> +9.4491958e+01 </wgt>
<wgt id='1754'> +9.4844046e+01 </wgt>
<wgt id='1755'> +9.4509257e+01 </wgt>
<wgt id='1756'> +9.4920950e+01 </wgt>
<wgt id='1757'> +9.4380899e+01 </wgt>
<wgt id='1758'> +9.5080576e+01 </wgt>
<wgt id='1759'> +9.4494658e+01 </wgt>
<wgt id='1760'> +9.4866594e+01 </wgt>
<wgt id='1761'> +9.4696798e+01 </wgt>
<wgt id='1762'> +9.4322349e+01 </wgt>
<wgt id='1763'> +9.5197999e+01 </wgt>
<wgt id='1764'> +9.4398580e+01 </wgt>
<wgt id='1765'> +9.4943828e+01 </wgt>
<wgt id='1766'> +9.4586418e+01 </wgt>
<wgt id='1767'> +9.4735862e+01 </wgt>
<wgt id='1768'> +7.9429707e+01 </wgt>
<wgt id='1769'> +1.1519252e+02 </wgt>
<wgt id='1770'> +7.4347882e+01 </wgt>
<wgt id='1771'> +1.0246958e+02 </wgt>
<wgt id='1772'> +9.5242063e+01 </wgt>
<wgt id='1773'> +9.4639293e+01 </wgt>
<wgt id='1774'> +9.4560109e+01 </wgt>
<wgt id='1775'> +9.4893754e+01 </wgt>
<wgt id='1776'> +9.3739874e+01 </wgt>
<wgt id='1777'> +9.5677988e+01 </wgt>
<wgt id='1778'> +9.5358457e+01 </wgt>
<wgt id='1779'> +9.5013945e+01 </wgt>
<wgt id='1780'> +9.1310811e+01 </wgt>
<wgt id='1781'> +9.7934477e+01 </wgt>
<wgt id='1782'> +9.8136903e+01 </wgt>
<wgt id='1783'> +9.7738228e+01 </wgt>
<wgt id='1784'> +9.7769417e+01 </wgt>
<wgt id='1785'> +9.8105078e+01 </wgt>
<wgt id='1786'> +9.8072660e+01 </wgt>
<wgt id='1787'> +9.7801670e+01 </wgt>
<wgt id='1788'> +9.7633327e+01 </wgt>
<wgt id='1789'> +9.8225771e+01 </wgt>
<wgt id='1790'> +9.8318968e+01 </wgt>
<wgt id='1791'> +9.7553837e+01 </wgt>
<wgt id='1792'> +9.8068917e+01 </wgt>
<wgt id='1793'> +9.7805578e+01 </wgt>
<wgt id='1794'> +9.7700281e+01 </wgt>
<wgt id='1795'> +9.8172202e+01 </wgt>
<wgt id='1796'> +9.7734692e+01 </wgt>
<wgt id='1797'> +9.8051979e+01 </wgt>
<wgt id='1798'> +9.8141529e+01 </wgt>
<wgt id='1799'> +9.7712589e+01 </wgt>
<wgt id='1800'> +9.7615652e+01 </wgt>
<wgt id='1801'> +9.8254022e+01 </wgt>
<wgt id='1802'> +9.7649998e+01 </wgt>
<wgt id='1803'> +9.8085357e+01 </wgt>
<wgt id='1804'> +9.8935839e+01 </wgt>
<wgt id='1805'> +9.6943193e+01 </wgt>
<wgt id='1806'> +9.8819366e+01 </wgt>
<wgt id='1807'> +9.6878367e+01 </wgt>
<wgt id='1808'> +9.8831107e+01 </wgt>
<wgt id='1809'> +9.7180645e+01 </wgt>
<wgt id='1810'> +9.7803567e+01 </wgt>
<wgt id='1811'> +8.0439753e+01 </wgt>
<wgt id='1812'> +1.2136083e+02 </wgt>
<wgt id='1813'> +7.4934634e+01 </wgt>
<wgt id='1814'> +1.0713881e+02 </wgt>
<wgt id='1815'> +1.0035459e+02 </wgt>
<wgt id='1816'> +9.6433895e+01 </wgt>
<wgt id='1817'> +9.7555017e+01 </wgt>
<wgt id='1818'> +9.7874844e+01 </wgt>
<wgt id='1819'> +9.8089198e+01 </wgt>
<wgt id='1820'> +1.0077477e+02 </wgt>
<wgt id='1821'> +9.8868558e+01 </wgt>
<wgt id='1822'> +9.7036358e+01 </wgt>
<wgt id='1823'> +9.6034949e+01 </wgt>
<wgt id='1824'> +8.2425684e+01 </wgt>
<wgt id='1825'> +8.2393835e+01 </wgt>
<wgt id='1826'> +8.2362012e+01 </wgt>
<wgt id='1827'> +8.2330195e+01 </wgt>
<wgt id='1828'> +8.2298407e+01 </wgt>
<wgt id='1829'> +8.2266748e+01 </wgt>
<wgt id='1830'> +8.2234920e+01 </wgt>
<wgt id='1831'> +8.2203167e+01 </wgt>
<wgt id='1832'> +8.2171338e+01 </wgt>
<wgt id='1833'> +8.2139590e+01 </wgt>
<wgt id='1834'> +8.2107883e+01 </wgt>
<wgt id='1835'> +8.2076017e+01 </wgt>
<wgt id='1836'> +8.2044291e+01 </wgt>
<wgt id='1837'> +8.2012611e+01 </wgt>
<wgt id='1838'> +8.1980794e+01 </wgt>
<wgt id='1839'> +8.1949051e+01 </wgt>
<wgt id='1840'> +8.1917317e+01 </wgt>
<wgt id='1841'> +8.1885662e+01 </wgt>
<wgt id='1842'> +8.1854029e+01 </wgt>
<wgt id='1843'> +8.1822308e+01 </wgt>
<wgt id='1844'> +8.1790622e+01 </wgt>
<wgt id='1845'> +8.1758846e+01 </wgt>
<wgt id='1846'> +8.1727218e+01 </wgt>
<wgt id='1847'> +8.1695539e+01 </wgt>
<wgt id='1848'> +8.1663784e+01 </wgt>
<wgt id='1849'> +8.1632127e+01 </wgt>
<wgt id='1850'> +8.1600490e+01 </wgt>
<wgt id='1851'> +8.1568761e+01 </wgt>
<wgt id='1852'> +8.1537131e+01 </wgt>
<wgt id='1853'> +8.1505504e+01 </wgt>
<wgt id='1854'> +8.1473920e+01 </wgt>
<wgt id='1855'> +8.5613713e+01 </wgt>
<wgt id='1856'> +8.7522191e+01 </wgt>
<wgt id='1857'> +8.5729865e+01 </wgt>
<wgt id='1858'> +8.4882207e+01 </wgt>
<wgt id='1859'> +8.1953854e+01 </wgt>
<wgt id='1860'> +8.0811425e+01 </wgt>
<wgt id='1861'> +8.2395136e+01 </wgt>
<wgt id='1862'> +8.3726066e+01 </wgt>
<wgt id='1863'> +8.5805181e+01 </wgt>
<wgt id='1864'> +8.5121556e+01 </wgt>
<wgt id='1865'> +8.8938331e+01 </wgt>
<wgt id='1866'> +7.7993339e+01 </wgt>
<wgt id='1867'> +8.3592913e+01 </wgt>
<wgt id='1868'> +8.3862105e+01 </wgt>
<wgt id='1869'> +8.4563155e+01 </wgt>
<wgt id='1870'> +8.5366192e+01 </wgt>
<wgt id='1871'> +8.4392411e+01 </wgt>
<wgt id='1872'> +8.9373482e+01 </wgt>
<wgt id='1873'> +8.1742269e+01 </wgt>
<wgt id='1874'> +8.7323686e+01 </wgt>
<wgt id='1875'> +8.6632325e+01 </wgt>
<wgt id='1876'> +8.6305800e+01 </wgt>
<wgt id='1877'> +8.7416360e+01 </wgt>
<wgt id='1878'> +8.7645974e+01 </wgt>
<wgt id='1879'> +8.4452132e+01 </wgt>
<wgt id='1880'> +8.5558509e+01 </wgt>
<wgt id='1881'> +8.5329919e+01 </wgt>
<wgt id='1882'> +8.5644230e+01 </wgt>
<wgt id='1883'> +8.6167318e+01 </wgt>
<wgt id='1884'> +8.5334474e+01 </wgt>
<wgt id='1885'> +8.5730307e+01 </wgt>
<wgt id='1886'> +8.5496360e+01 </wgt>
<wgt id='1887'> +8.6421987e+01 </wgt>
<wgt id='1888'> +8.5467833e+01 </wgt>
<wgt id='1889'> +8.5851676e+01 </wgt>
<wgt id='1890'> +8.6383727e+01 </wgt>
<wgt id='1891'> +8.5458649e+01 </wgt>
<wgt id='1892'> +8.5399265e+01 </wgt>
<wgt id='1893'> +8.5912668e+01 </wgt>
<wgt id='1894'> +8.5754740e+01 </wgt>
<wgt id='1895'> +8.4977928e+01 </wgt>
<wgt id='1896'> +8.5298410e+01 </wgt>
<wgt id='1897'> +8.5548471e+01 </wgt>
<wgt id='1898'> +8.5327792e+01 </wgt>
<wgt id='1899'> +8.5527031e+01 </wgt>
<wgt id='1900'> +8.5458603e+01 </wgt>
<wgt id='1901'> +8.5572717e+01 </wgt>
<wgt id='1902'> +8.5424532e+01 </wgt>
<wgt id='1903'> +8.5720397e+01 </wgt>
<wgt id='1904'> +8.5898777e+01 </wgt>
<wgt id='1905'> +8.5507201e+01 </wgt>
<wgt id='1906'> +8.5448405e+01 </wgt>
<wgt id='1907'> +8.5850757e+01 </wgt>
<wgt id='1908'> +8.5679306e+01 </wgt>
<wgt id='1909'> +8.5450546e+01 </wgt>
<wgt id='1910'> +8.5635393e+01 </wgt>
<wgt id='1911'> +8.5597155e+01 </wgt>
<wgt id='1912'> +8.5646457e+01 </wgt>
<wgt id='1913'> +8.5458610e+01 </wgt>
<wgt id='1914'> +8.5480512e+01 </wgt>
<wgt id='1915'> +8.5594653e+01 </wgt>
<wgt id='1916'> +8.5600816e+01 </wgt>
<wgt id='1917'> +8.5533372e+01 </wgt>
<wgt id='1918'> +8.5557631e+01 </wgt>
<wgt id='1919'> +8.5639521e+01 </wgt>
<wgt id='1920'> +8.5620281e+01 </wgt>
<wgt id='1921'> +8.5675172e+01 </wgt>
<wgt id='1922'> +8.5600263e+01 </wgt>
<wgt id='1923'> +8.5629635e+01 </wgt>
<wgt id='1924'> +8.5621105e+01 </wgt>
<wgt id='1925'> +8.5579472e+01 </wgt>
<wgt id='1926'> +8.5670764e+01 </wgt>
<wgt id='1927'> +8.5647364e+01 </wgt>
<wgt id='1928'> +8.5644262e+01 </wgt>
<wgt id='1929'> +8.5588740e+01 </wgt>
<wgt id='1930'> +8.5623536e+01 </wgt>
<wgt id='1931'> +8.5638910e+01 </wgt>
<wgt id='1932'> +8.5633766e+01 </wgt>
<wgt id='1933'> +8.5650284e+01 </wgt>
<wgt id='1934'> +8.5655300e+01 </wgt>
<wgt id='1935'> +8.5728226e+01 </wgt>
<wgt id='1936'> +8.5611965e+01 </wgt>
<wgt id='1937'> +8.5605023e+01 </wgt>
<wgt id='1938'> +8.5580954e+01 </wgt>
<wgt id='1939'> +8.5531831e+01 </wgt>
<wgt id='1940'> +8.5635963e+01 </wgt>
<wgt id='1941'> +8.5636020e+01 </wgt>
<wgt id='1942'> +8.5560181e+01 </wgt>
<wgt id='1943'> +8.5673655e+01 </wgt>
<wgt id='1944'> +8.5628042e+01 </wgt>
<wgt id='1945'> +8.5619208e+01 </wgt>
<wgt id='1946'> +8.5594587e+01 </wgt>
<wgt id='1947'> +8.5646806e+01 </wgt>
<wgt id='1948'> +8.5626838e+01 </wgt>
<wgt id='1949'> +8.5621748e+01 </wgt>
<wgt id='1950'> +8.5654909e+01 </wgt>
<wgt id='1951'> +8.5576707e+01 </wgt>
<wgt id='1952'> +8.5639205e+01 </wgt>
<wgt id='1953'> +8.5617030e+01 </wgt>
<wgt id='1954'> +8.5601848e+01 </wgt>
<wgt id='1955'> +8.5564290e+01 </wgt>
<wgt id='1956'> +8.5613379e+01 </wgt>
<wgt id='1957'> +8.5615475e+01 </wgt>
<wgt id='1958'> +8.5614045e+01 </wgt>
<wgt id='1959'> +8.5614107e+01 </wgt>
<wgt id='1960'> +8.5614701e+01 </wgt>
<wgt id='1961'> +8.5613855e+01 </wgt>
<wgt id='1962'> +8.5615821e+01 </wgt>
</rwgt>
</event>
<event npLO=" -1 " npNLO=" 1 ">
 7      1 +1.5146096e+02 1.13189360e+02 7.54677110e-03 1.13595710e-01
       21 -1    0    0  501  502 +0.0000000000e+00 +0.0000000000e+00 +1.6535078000e+01 1.6535078000e+01 0.0000000000e+00 0.0000e+00 9.0000e+00
        2 -1    0    0  502    0 -0.0000000000e+00 -0.0000000000e+00 -1.1009108000e+03 1.1009108000e+03 0.0000000000e+00 0.0000e+00 9.0000e+00
       13  1    1    2    0    0 +3.3322771000e+01 -2.3240334000e+01 -2.5591508000e+02 2.5911976000e+02 0.0000000000e+00 0.0000e+00 9.0000e+00
      -13  1    1    2    0    0 -3.8401249000e+01 -7.6294655000e+01 -2.5399927000e+02 2.6797605000e+02 0.0000000000e+00 0.0000e+00 9.0000e+00
       22  1    1    2    0    0 +1.3546669000e+01 -1.1970823000e+01 -7.7497798000e+01 7.9578399000e+01 0.0000000000e+00 0.0000e+00 9.0000e+00
        2  1    1    2  503    0 +6.3368996000e-01 -2.7158901000e+00 -2.2297909000e+01 2.2471634000e+01 0.0000000000e+00 0.0000e+00 9.0000e+00
       21  1    1    2  501  503 -9.1018817000e+00 +1.1422170000e+02 -4.7466569000e+02 4.8830007000e+02 0.0000000000e+00 0.0000e+00 9.0000e+00
#aMCatNLO 2  0  0  6  1 0.63249655E+01 0.00000000E+00 -9  7  0 0.00000000E+00 0.00000000E+00 0.00000000E+00 0.00000000E+00 0.00000000E+00
<rwgt>
<wgt id='1001'> +1.5146000e+02 </wgt>
<wgt id='1002'> +1.5146000e+02 </wgt>
<wgt id='1003'> +1.4408000e+02 </wgt>
<wgt id='1004'> +1.5023000e+02 </wgt>
<wgt id='1005'> +1.5420000e+02 </wgt>
<wgt id='1006'> +1.5278000e+02 </wgt>
<wgt id='1007'> +1.4710000e+02 </wgt>
<wgt id='1008'> +1.5191000e+02 </wgt>
<wgt id='1009'> +1.5223000e+02 </wgt>
<wgt id='1010'> +1.4908000e+02 </wgt>
<wgt id='1011'> +1.5155000e+02 </wgt>
<wgt id='1012'> +1.5121000e+02 </wgt>
<wgt id='1013'> +1.5610000e+02 </wgt>
<wgt id='1014'> +1.5377000e+02 </wgt>
<wgt id='1015'> +1.5379000e+02 </wgt>
<wgt id='1016'> +1.5207000e+02 </wgt>
<wgt id='1017'> +1.5215000e+02 </wgt>
<wgt id='1018'> +1.4924000e+02 </wgt>
<wgt id='1019'> +1.4894000e+02 </wgt>
<wgt id='1020'> +1.4642000e+02 </wgt>
<wgt id='1021'> +1.5059000e+02 </wgt>
<wgt id='1022'> +1.4805000e+02 </wgt>
<wgt id='1023'> +1.5426000e+02 </wgt>
<wgt id='1024'> +1.5111000e+02 </wgt>
<wgt id='1025'> +1.5914000e+02 </wgt>
<wgt id='1026'> +1.5153000e+02 </wgt>
<wgt id='1027'> +1.5230000e+02 </wgt>
<wgt id='1028'> +1.5129000e+02 </wgt>
<wgt id='1029'> +1.4725000e+02 </wgt>
<wgt id='1030'> +1.5180000e+02 </wgt>
<wgt id='1031'> +1.4943000e+02 </wgt>
<wgt id='1032'> +1.5230000e+02 </wgt>
<wgt id='1033'> +1.5129000e+02 </wgt>
<wgt id='1034'> +1.5392000e+02 </wgt>
<wgt id='1035'> +1.5286000e+02 </wgt>
<wgt id='1036'> +1.5371000e+02 </wgt>
<wgt id='1037'> +1.5454000e+02 </wgt>
<wgt id='1038'> +1.5135000e+02 </wgt>
<wgt id='1039'> +1.4947000e+02 </wgt>
<wgt id='1040'> +1.5081000e+02 </wgt>
<wgt id='1041'> +1.4792000e+02 </wgt>
<wgt id='1042'> +1.5263000e+02 </wgt>
<wgt id='1043'> +1.5264000e+02 </wgt>
<wgt id='1044'> +1.5322000e+02 </wgt>
<wgt id='1045'> +1.5355000e+02 </wgt>
<wgt id='1046'> +1.5119000e+02 </wgt>
<wgt id='1047'> +1.5201000e+02 </wgt>
<wgt id='1048'> +1.5220000e+02 </wgt>
<wgt id='1049'> +1.4928000e+02 </wgt>
<wgt id='1050'> +1.4829000e+02 </wgt>
<wgt id='1051'> +1.5231000e+02 </wgt>
<wgt id='1052'> +1.5246000e+02 </wgt>
<wgt id='1053'> +1.5346000e+02 </wgt>
<wgt id='1054'> +1.5291000e+02 </wgt>
<wgt id='1055'> +1.5473000e+02 </wgt>
<wgt id='1056'> +1.5094000e+02 </wgt>
<wgt id='1057'> +1.5210000e+02 </wgt>
<wgt id='1058'> +1.4712000e+02 </wgt>
<wgt id='1059'> +1.5288000e+02 </wgt>
<wgt id='1060'> +1.5332000e+02 </wgt>
<wgt id='1061'> +1.4968000e+02 </wgt>
<wgt id='1062'> +1.5106000e+02 </wgt>
<wgt id='1063'> +1.5196000e+02 </wgt>
<wgt id='1064'> +1.5102000e+02 </wgt>
<wgt id='1065'> +1.5615000e+02 </wgt>
<wgt id='1066'> +1.4543000e+02 </wgt>
<wgt id='1067'> +1.5373000e+02 </wgt>
<wgt id='1068'> +1.5151000e+02 </wgt>
<wgt id='1069'> +1.5607000e+02 </wgt>
<wgt id='1070'> +1.5088000e+02 </wgt>
<wgt id='1071'> +1.5027000e+02 </wgt>
<wgt id='1072'> +1.4918000e+02 </wgt>
<wgt id='1073'> +1.5426000e+02 </wgt>
<wgt id='1074'> +1.5368000e+02 </wgt>
<wgt id='1075'> +1.4902000e+02 </wgt>
<wgt id='1076'> +1.5547000e+02 </wgt>
<wgt id='1077'> +1.5078000e+02 </wgt>
<wgt id='1078'> +1.5510000e+02 </wgt>
<wgt id='1079'> +1.5215000e+02 </wgt>
<wgt id='1080'> +1.5443000e+02 </wgt>
<wgt id='1081'> +1.5202000e+02 </wgt>
<wgt id='1082'> +1.5084000e+02 </wgt>
<wgt id='1083'> +1.5317000e+02 </wgt>
<wgt id='1084'> +1.5293000e+02 </wgt>
<wgt id='1085'> +1.4647000e+02 </wgt>
<wgt id='1086'> +1.5039000e+02 </wgt>
<wgt id='1087'> +1.4982000e+02 </wgt>
<wgt id='1088'> +1.4997000e+02 </wgt>
<wgt id='1089'> +1.5281000e+02 </wgt>
<wgt id='1090'> +1.5309000e+02 </wgt>
<wgt id='1091'> +1.4824000e+02 </wgt>
<wgt id='1092'> +1.5129000e+02 </wgt>
<wgt id='1093'> +1.4845000e+02 </wgt>
<wgt id='1094'> +1.5182000e+02 </wgt>
<wgt id='1095'> +1.4820000e+02 </wgt>
<wgt id='1096'> +1.5299000e+02 </wgt>
<wgt id='1097'> +1.4727000e+02 </wgt>
<wgt id='1098'> +1.5176000e+02 </wgt>
<wgt id='1099'> +1.4964000e+02 </wgt>
<wgt id='1100'> +1.5581000e+02 </wgt>
<wgt id='1101'> +1.5164000e+02 </wgt>
<wgt id='1102'> +1.4662000e+02 </wgt>
<wgt id='1103'> +1.4925000e+02 </wgt>
<wgt id='1104'> +1.5310000e+02 </wgt>
<wgt id='1105'> +1.5146096e+02 </wgt>
<wgt id='1106'> +6.2553221e+01 </wgt>
<wgt id='1107'> +9.3635612e+01 </wgt>
<wgt id='1108'> +7.8036614e+01 </wgt>
<wgt id='1109'> +6.4458084e+01 </wgt>
<wgt id='1110'> +9.6486993e+01 </wgt>
<wgt id='1111'> +7.2370257e+01 </wgt>
<wgt id='1112'> +5.9777685e+01 </wgt>
<wgt id='1113'> +8.9480925e+01 </wgt>
<wgt id='1114'> +7.7502308e+01 </wgt>
<wgt id='1115'> +7.7412805e+01 </wgt>
<wgt id='1116'> +7.8519921e+01 </wgt>
<wgt id='1117'> +7.6775051e+01 </wgt>
<wgt id='1118'> +7.6380406e+01 </wgt>
<wgt id='1119'> +7.7706503e+01 </wgt>
<wgt id='1120'> +7.6210045e+01 </wgt>
<wgt id='1121'> +7.8908873e+01 </wgt>
<wgt id='1122'> +7.8864994e+01 </wgt>
<wgt id='1123'> +7.7286186e+01 </wgt>
<wgt id='1124'> +7.3185367e+01 </wgt>
<wgt id='1125'> +7.7713747e+01 </wgt>
<wgt id='1126'> +7.6801412e+01 </wgt>
<wgt id='1127'> +7.7327274e+01 </wgt>
<wgt id='1128'> +7.8785294e+01 </wgt>
<wgt id='1129'> +7.8452875e+01 </wgt>
<wgt id='1130'> +7.7437193e+01 </wgt>
<wgt id='1131'> +7.6824245e+01 </wgt>
<wgt id='1132'> +7.8286563e+01 </wgt>
<wgt id='1133'> +7.8306934e+01 </wgt>
<wgt id='1134'> +7.7335751e+01 </wgt>
<wgt id='1135'> +7.8008821e+01 </wgt>
<wgt id='1136'> +7.9187226e+01 </wgt>
<wgt id='1137'> +7.8570765e+01 </wgt>
<wgt id='1138'> +7.7635151e+01 </wgt>
<wgt id='1139'> +7.9007891e+01 </wgt>
<wgt id='1140'> +8.0425701e+01 </wgt>
<wgt id='1141'> +7.4588818e+01 </wgt>
<wgt id='1142'> +7.7778865e+01 </wgt>
<wgt id='1143'> +7.6683204e+01 </wgt>
<wgt id='1144'> +7.6546002e+01 </wgt>
<wgt id='1145'> +7.6755978e+01 </wgt>
<wgt id='1146'> +7.7074588e+01 </wgt>
<wgt id='1147'> +7.7713584e+01 </wgt>
<wgt id='1148'> +7.5953606e+01 </wgt>
<wgt id='1149'> +7.7542906e+01 </wgt>
<wgt id='1150'> +7.8690292e+01 </wgt>
<wgt id='1151'> +7.9132805e+01 </wgt>
<wgt id='1152'> +7.7219445e+01 </wgt>
<wgt id='1153'> +7.6834055e+01 </wgt>
<wgt id='1154'> +7.7971924e+01 </wgt>
<wgt id='1155'> +7.7752707e+01 </wgt>
<wgt id='1156'> +7.6770457e+01 </wgt>
<wgt id='1157'> +7.6220680e+01 </wgt>
<wgt id='1158'> +7.5791328e+01 </wgt>
<wgt id='1159'> +7.8784764e+01 </wgt>
<wgt id='1160'> +7.7634264e+01 </wgt>
<wgt id='1161'> +7.6819979e+01 </wgt>
<wgt id='1162'> +7.8847881e+01 </wgt>
<wgt id='1163'> +7.7889901e+01 </wgt>
<wgt id='1164'> +7.6422526e+01 </wgt>
<wgt id='1165'> +7.6890495e+01 </wgt>
<wgt id='1166'> +7.8567388e+01 </wgt>
<wgt id='1167'> +7.7615032e+01 </wgt>
<wgt id='1168'> +7.7958337e+01 </wgt>
<wgt id='1169'> +7.9583001e+01 </wgt>
<wgt id='1170'> +7.6948769e+01 </wgt>
<wgt id='1171'> +7.8687951e+01 </wgt>
<wgt id='1172'> +7.9199438e+01 </wgt>
<wgt id='1173'> +7.8543483e+01 </wgt>
<wgt id='1174'> +7.9076404e+01 </wgt>
<wgt id='1175'> +7.5742212e+01 </wgt>
<wgt id='1176'> +7.7772093e+01 </wgt>
<wgt id='1177'> +7.7565911e+01 </wgt>
<wgt id='1178'> +7.8613315e+01 </wgt>
<wgt id='1179'> +7.8276777e+01 </wgt>
<wgt id='1180'> +7.8926778e+01 </wgt>
<wgt id='1181'> +7.7128856e+01 </wgt>
<wgt id='1182'> +7.6930951e+01 </wgt>
<wgt id='1183'> +7.7279419e+01 </wgt>
<wgt id='1184'> +7.6109583e+01 </wgt>
<wgt id='1185'> +7.7773765e+01 </wgt>
<wgt id='1186'> +7.6325882e+01 </wgt>
<wgt id='1187'> +7.7551356e+01 </wgt>
<wgt id='1188'> +7.6930438e+01 </wgt>
<wgt id='1189'> +7.6653137e+01 </wgt>
<wgt id='1190'> +7.7563434e+01 </wgt>
<wgt id='1191'> +7.6150112e+01 </wgt>
<wgt id='1192'> +7.8433683e+01 </wgt>
<wgt id='1193'> +7.7497540e+01 </wgt>
<wgt id='1194'> +7.5662785e+01 </wgt>
<wgt id='1195'> +7.7171893e+01 </wgt>
<wgt id='1196'> +7.7437193e+01 </wgt>
<wgt id='1197'> +7.4859450e+01 </wgt>
<wgt id='1198'> +7.8018807e+01 </wgt>
<wgt id='1199'> +7.8709032e+01 </wgt>
<wgt id='1200'> +7.5829611e+01 </wgt>
<wgt id='1201'> +7.8626388e+01 </wgt>
<wgt id='1202'> +7.5052481e+01 </wgt>
<wgt id='1203'> +7.4766971e+01 </wgt>
<wgt id='1204'> +7.7430257e+01 </wgt>
<wgt id='1205'> +7.8276056e+01 </wgt>
<wgt id='1206'> +7.7578864e+01 </wgt>
<wgt id='1207'> +7.7625597e+01 </wgt>
<wgt id='1208'> +7.6551618e+01 </wgt>
<wgt id='1209'> +7.7284091e+01 </wgt>
<wgt id='1210'> +7.8113207e+01 </wgt>
<wgt id='1211'> +7.6422673e+01 </wgt>
<wgt id='1212'> +7.8295823e+01 </wgt>
<wgt id='1213'> +7.9738383e+01 </wgt>
<wgt id='1214'> +7.9669126e+01 </wgt>
<wgt id='1215'> +7.6140185e+01 </wgt>
<wgt id='1216'> +7.7068716e+01 </wgt>
<wgt id='1217'> +7.7244053e+01 </wgt>
<wgt id='1218'> +7.6808459e+01 </wgt>
<wgt id='1219'> +7.7250870e+01 </wgt>
<wgt id='1220'> +7.6912084e+01 </wgt>
<wgt id='1221'> +7.7193096e+01 </wgt>
<wgt id='1222'> +7.7251206e+01 </wgt>
<wgt id='1223'> +7.7034257e+01 </wgt>
<wgt id='1224'> +7.6951999e+01 </wgt>
<wgt id='1225'> +7.6849817e+01 </wgt>
<wgt id='1226'> +7.7128436e+01 </wgt>
<wgt id='1227'> +7.7225258e+01 </wgt>
<wgt id='1228'> +7.7078173e+01 </wgt>
<wgt id='1229'> +7.6738190e+01 </wgt>
<wgt id='1230'> +7.7187823e+01 </wgt>
<wgt id='1231'> +7.7172676e+01 </wgt>
<wgt id='1232'> +7.6919169e+01 </wgt>
<wgt id='1233'> +7.7129510e+01 </wgt>
<wgt id='1234'> +7.6972011e+01 </wgt>
<wgt id='1235'> +7.6984432e+01 </wgt>
<wgt id='1236'> +7.6891689e+01 </wgt>
<wgt id='1237'> +7.7110862e+01 </wgt>
<wgt id='1238'> +7.7183140e+01 </wgt>
<wgt id='1239'> +7.7290079e+01 </wgt>
<wgt id='1240'> +7.7016477e+01 </wgt>
<wgt id='1241'> +7.6888950e+01 </wgt>
<wgt id='1242'> +7.7064028e+01 </wgt>
<wgt id='1243'> +7.6989723e+01 </wgt>
<wgt id='1244'> +7.7244247e+01 </wgt>
<wgt id='1245'> +7.7308635e+01 </wgt>
<wgt id='1246'> +7.6311179e+01 </wgt>
<wgt id='1247'> +7.6735029e+01 </wgt>
<wgt id='1248'> +7.7246996e+01 </wgt>
<wgt id='1249'> +7.7155988e+01 </wgt>
<wgt id='1250'> +7.7071438e+01 </wgt>
<wgt id='1251'> +7.7240852e+01 </wgt>
<wgt id='1252'> +7.7146425e+01 </wgt>
<wgt id='1253'> +7.6828691e+01 </wgt>
<wgt id='1254'> +7.7134091e+01 </wgt>
<wgt id='1255'> +7.7072985e+01 </wgt>
<wgt id='1256'> +7.7017988e+01 </wgt>
<wgt id='1257'> +7.7165856e+01 </wgt>
<wgt id='1258'> +7.7161235e+01 </wgt>
<wgt id='1259'> +7.6948241e+01 </wgt>
<wgt id='1260'> +7.7089159e+01 </wgt>
<wgt id='1261'> +7.7115087e+01 </wgt>
<wgt id='1262'> +7.7007396e+01 </wgt>
<wgt id='1263'> +7.7038863e+01 </wgt>
<wgt id='1264'> +7.7163702e+01 </wgt>
<wgt id='1265'> +7.7014698e+01 </wgt>
<wgt id='1266'> +7.7016603e+01 </wgt>
<wgt id='1267'> +7.7151506e+01 </wgt>
<wgt id='1268'> +7.7178512e+01 </wgt>
<wgt id='1269'> +7.7025889e+01 </wgt>
<wgt id='1270'> +7.7070049e+01 </wgt>
<wgt id='1271'> +7.6997736e+01 </wgt>
<wgt id='1272'> +7.7057712e+01 </wgt>
<wgt id='1273'> +7.7129858e+01 </wgt>
<wgt id='1274'> +7.7074951e+01 </wgt>
<wgt id='1275'> +7.7075708e+01 </wgt>
<wgt id='1276'> +7.7048279e+01 </wgt>
<wgt id='1277'> +7.7031657e+01 </wgt>
<wgt id='1278'> +7.6958944e+01 </wgt>
<wgt id='1279'> +7.7088677e+01 </wgt>
<wgt id='1280'> +7.7006480e+01 </wgt>
<wgt id='1281'> +7.7036705e+01 </wgt>
<wgt id='1282'> +7.7043378e+01 </wgt>
<wgt id='1283'> +7.6981568e+01 </wgt>
<wgt id='1284'> +7.7131551e+01 </wgt>
<wgt id='1285'> +7.7041106e+01 </wgt>
<wgt id='1286'> +7.6938239e+01 </wgt>
<wgt id='1287'> +7.7031557e+01 </wgt>
<wgt id='1288'> +7.7014799e+01 </wgt>
<wgt id='1289'> +7.7021749e+01 </wgt>
<wgt id='1290'> +7.7184371e+01 </wgt>
<wgt id='1291'> +7.7084601e+01 </wgt>
<wgt id='1292'> +7.7075602e+01 </wgt>
<wgt id='1293'> +7.6985106e+01 </wgt>
<wgt id='1294'> +7.7114789e+01 </wgt>
<wgt id='1295'> +7.7094694e+01 </wgt>
<wgt id='1296'> +7.7073644e+01 </wgt>
<wgt id='1297'> +7.7141447e+01 </wgt>
<wgt id='1298'> +7.7081594e+01 </wgt>
<wgt id='1299'> +7.7124705e+01 </wgt>
<wgt id='1300'> +7.7061034e+01 </wgt>
<wgt id='1301'> +7.7089555e+01 </wgt>
<wgt id='1302'> +7.7041221e+01 </wgt>
<wgt id='1303'> +7.7077317e+01 </wgt>
<wgt id='1304'> +7.7059018e+01 </wgt>
<wgt id='1305'> +7.7072207e+01 </wgt>
<wgt id='1306'> +7.7110868e+01 </wgt>
<wgt id='1307'> +7.7090280e+01 </wgt>
<wgt id='1308'> +7.7096530e+01 </wgt>
<wgt id='1309'> +7.7055381e+01 </wgt>
<wgt id='1310'> +7.7044427e+01 </wgt>
<wgt id='1311'> +7.7088153e+01 </wgt>
<wgt id='1312'> +7.7016547e+01 </wgt>
<wgt id='1313'> +7.7016523e+01 </wgt>
<wgt id='1314'> +7.7106190e+01 </wgt>
<wgt id='1315'> +7.7091109e+01 </wgt>
<wgt id='1316'> +7.7117248e+01 </wgt>
<wgt id='1317'> +7.5166036e+01 </wgt>
<wgt id='1318'> +7.9188702e+01 </wgt>
<wgt id='1319'> +8.3429111e+01 </wgt>
<wgt id='1320'> +7.7637591e+01 </wgt>
<wgt id='1321'> +7.7824142e+01 </wgt>
<wgt id='1322'> +7.7657526e+01 </wgt>
<wgt id='1323'> +7.8247496e+01 </wgt>
<wgt id='1324'> +7.7866451e+01 </wgt>
<wgt id='1325'> +7.7350721e+01 </wgt>
<wgt id='1326'> +7.7626145e+01 </wgt>
<wgt id='1327'> +7.7356905e+01 </wgt>
<wgt id='1328'> +7.8144488e+01 </wgt>
<wgt id='1329'> +7.6490487e+01 </wgt>
<wgt id='1330'> +7.8773503e+01 </wgt>
<wgt id='1331'> +7.8704919e+01 </wgt>
<wgt id='1332'> +7.6953702e+01 </wgt>
<wgt id='1333'> +7.5822685e+01 </wgt>
<wgt id='1334'> +7.8633828e+01 </wgt>
<wgt id='1335'> +7.7589818e+01 </wgt>
<wgt id='1336'> +7.7592101e+01 </wgt>
<wgt id='1337'> +7.8023554e+01 </wgt>
<wgt id='1338'> +7.7183789e+01 </wgt>
<wgt id='1339'> +7.8405825e+01 </wgt>
<wgt id='1340'> +7.6776522e+01 </wgt>
<wgt id='1341'> +7.7336674e+01 </wgt>
<wgt id='1342'> +7.8039289e+01 </wgt>
<wgt id='1343'> +7.7190867e+01 </wgt>
<wgt id='1344'> +7.8128630e+01 </wgt>
<wgt id='1345'> +7.6493920e+01 </wgt>
<wgt id='1346'> +7.8716083e+01 </wgt>
<wgt id='1347'> +7.7652232e+01 </wgt>
<wgt id='1348'> +7.7595304e+01 </wgt>
<wgt id='1349'> +7.7140171e+01 </wgt>
<wgt id='1350'> +7.7807616e+01 </wgt>
<wgt id='1351'> +7.7676046e+01 </wgt>
<wgt id='1352'> +7.7587482e+01 </wgt>
<wgt id='1353'> +7.7915981e+01 </wgt>
<wgt id='1354'> +7.7018740e+01 </wgt>
<wgt id='1355'> +7.8317687e+01 </wgt>
<wgt id='1356'> +7.6948229e+01 </wgt>
<wgt id='1357'> +7.7887307e+01 </wgt>
<wgt id='1358'> +7.7187015e+01 </wgt>
<wgt id='1359'> +7.7192157e+01 </wgt>
<wgt id='1360'> +7.7800787e+01 </wgt>
<wgt id='1361'> +7.8205020e+01 </wgt>
<wgt id='1362'> +7.7066070e+01 </wgt>
<wgt id='1363'> +7.7604439e+01 </wgt>
<wgt id='1364'> +7.7413123e+01 </wgt>
<wgt id='1365'> +7.7539762e+01 </wgt>
<wgt id='1366'> +7.7367047e+01 </wgt>
<wgt id='1367'> +7.7540058e+01 </wgt>
<wgt id='1368'> +7.8227327e+01 </wgt>
<wgt id='1369'> +7.8141116e+01 </wgt>
<wgt id='1370'> +7.7328682e+01 </wgt>
<wgt id='1371'> +7.7941196e+01 </wgt>
<wgt id='1372'> +7.8386449e+01 </wgt>
<wgt id='1373'> +7.6434167e+01 </wgt>
<wgt id='1374'> +7.7401409e+01 </wgt>
<wgt id='1375'> +7.7459757e+01 </wgt>
<wgt id='1376'> +7.7651257e+01 </wgt>
<wgt id='1377'> +7.5746320e+01 </wgt>
<wgt id='1378'> +7.9364454e+01 </wgt>
<wgt id='1379'> +7.6223011e+01 </wgt>
<wgt id='1380'> +7.4626684e+01 </wgt>
<wgt id='1381'> +7.7671562e+01 </wgt>
<wgt id='1382'> +7.8775214e+01 </wgt>
<wgt id='1383'> +7.5747371e+01 </wgt>
<wgt id='1384'> +7.5779863e+01 </wgt>
<wgt id='1385'> +9.7953534e+01 </wgt>
<wgt id='1386'> +9.8020182e+01 </wgt>
<wgt id='1387'> +9.7874636e+01 </wgt>
<wgt id='1388'> +9.7690450e+01 </wgt>
<wgt id='1389'> +9.8396465e+01 </wgt>
<wgt id='1390'> +9.7932530e+01 </wgt>
<wgt id='1391'> +9.7976777e+01 </wgt>
<wgt id='1392'> +9.8604415e+01 </wgt>
<wgt id='1393'> +9.7497919e+01 </wgt>
<wgt id='1394'> +9.8004307e+01 </wgt>
<wgt id='1395'> +9.7876529e+01 </wgt>
<wgt id='1396'> +9.7758407e+01 </wgt>
<wgt id='1397'> +9.8049873e+01 </wgt>
<wgt id='1398'> +9.7479906e+01 </wgt>
<wgt id='1399'> +9.8301000e+01 </wgt>
<wgt id='1400'> +9.8344964e+01 </wgt>
<wgt id='1401'> +9.7636630e+01 </wgt>
<wgt id='1402'> +9.8363826e+01 </wgt>
<wgt id='1403'> +9.7761489e+01 </wgt>
<wgt id='1404'> +9.6403508e+01 </wgt>
<wgt id='1405'> +9.8698430e+01 </wgt>
<wgt id='1406'> +9.7952052e+01 </wgt>
<wgt id='1407'> +9.7944868e+01 </wgt>
<wgt id='1408'> +9.8013851e+01 </wgt>
<wgt id='1409'> +9.7818047e+01 </wgt>
<wgt id='1410'> +9.8239685e+01 </wgt>
<wgt id='1411'> +9.7204477e+01 </wgt>
<wgt id='1412'> +9.8517384e+01 </wgt>
<wgt id='1413'> +9.7145466e+01 </wgt>
<wgt id='1414'> +9.7828457e+01 </wgt>
<wgt id='1415'> +9.7913176e+01 </wgt>
<wgt id='1416'> +9.8045015e+01 </wgt>
<wgt id='1417'> +9.7939081e+01 </wgt>
<wgt id='1418'> +9.7843393e+01 </wgt>
<wgt id='1419'> +9.8121856e+01 </wgt>
<wgt id='1420'> +9.7725943e+01 </wgt>
<wgt id='1421'> +9.7888599e+01 </wgt>
<wgt id='1422'> +9.8098897e+01 </wgt>
<wgt id='1423'> +9.7797143e+01 </wgt>
<wgt id='1424'> +9.8186658e+01 </wgt>
<wgt id='1425'> +9.7405662e+01 </wgt>
<wgt id='1426'> +9.7989426e+01 </wgt>
<wgt id='1427'> +9.7907418e+01 </wgt>
<wgt id='1428'> +9.8117580e+01 </wgt>
<wgt id='1429'> +9.7579423e+01 </wgt>
<wgt id='1430'> +9.8007733e+01 </wgt>
<wgt id='1431'> +9.7915450e+01 </wgt>
<wgt id='1432'> +9.7939477e+01 </wgt>
<wgt id='1433'> +9.7977194e+01 </wgt>
<wgt id='1434'> +9.7997701e+01 </wgt>
<wgt id='1435'> +9.8254029e+01 </wgt>
<wgt id='1436'> +6.9205312e+01 </wgt>
<wgt id='1437'> +6.9198679e+01 </wgt>
<wgt id='1438'> +6.9195200e+01 </wgt>
<wgt id='1439'> +6.9203404e+01 </wgt>
<wgt id='1440'> +6.9311616e+01 </wgt>
<wgt id='1441'> +6.9298877e+01 </wgt>
<wgt id='1442'> +6.9045899e+01 </wgt>
<wgt id='1443'> +6.9396596e+01 </wgt>
<wgt id='1444'> +6.9018815e+01 </wgt>
<wgt id='1445'> +6.8786505e+01 </wgt>
<wgt id='1446'> +6.9405718e+01 </wgt>
<wgt id='1447'> +6.9308839e+01 </wgt>
<wgt id='1448'> +6.9168572e+01 </wgt>
<wgt id='1449'> +6.9337185e+01 </wgt>
<wgt id='1450'> +6.9255828e+01 </wgt>
<wgt id='1451'> +6.9360589e+01 </wgt>
<wgt id='1452'> +6.8944635e+01 </wgt>
<wgt id='1453'> +6.9132069e+01 </wgt>
<wgt id='1454'> +6.9299800e+01 </wgt>
<wgt id='1455'> +6.9056571e+01 </wgt>
<wgt id='1456'> +6.9074566e+01 </wgt>
<wgt id='1457'> +6.9256041e+01 </wgt>
<wgt id='1458'> +6.9307043e+01 </wgt>
<wgt id='1459'> +6.9170880e+01 </wgt>
<wgt id='1460'> +6.9298725e+01 </wgt>
<wgt id='1461'> +6.9542271e+01 </wgt>
<wgt id='1462'> +6.9256235e+01 </wgt>
<wgt id='1463'> +6.9157157e+01 </wgt>
<wgt id='1464'> +6.9186607e+01 </wgt>
<wgt id='1465'> +7.8799701e+01 </wgt>
<wgt id='1466'> +7.6409299e+01 </wgt>
<wgt id='1467'> +7.6148911e+01 </wgt>
<wgt id='1468'> +7.6218288e+01 </wgt>
<wgt id='1469'> +7.6520776e+01 </wgt>
<wgt id='1470'> +7.6295907e+01 </wgt>
<wgt id='1471'> +7.6544178e+01 </wgt>
<wgt id='1472'> +7.5972131e+01 </wgt>
<wgt id='1473'> +7.7089547e+01 </wgt>
<wgt id='1474'> +7.7160080e+01 </wgt>
<wgt id='1475'> +7.5979407e+01 </wgt>
<wgt id='1476'> +7.6428624e+01 </wgt>
<wgt id='1477'> +7.6371687e+01 </wgt>
<wgt id='1478'> +7.6071861e+01 </wgt>
<wgt id='1479'> +7.6811248e+01 </wgt>
<wgt id='1480'> +7.6330488e+01 </wgt>
<wgt id='1481'> +7.6314957e+01 </wgt>
<wgt id='1482'> +7.6353119e+01 </wgt>
<wgt id='1483'> +7.6183742e+01 </wgt>
<wgt id='1484'> +7.6748512e+01 </wgt>
<wgt id='1485'> +7.6268036e+01 </wgt>
<wgt id='1486'> +7.6499772e+01 </wgt>
<wgt id='1487'> +7.6449197e+01 </wgt>
<wgt id='1488'> +7.6122126e+01 </wgt>
<wgt id='1489'> +7.6774537e+01 </wgt>
<wgt id='1490'> +7.6290855e+01 </wgt>
<wgt id='1491'> +7.6722660e+01 </wgt>
<wgt id='1492'> +7.6419494e+01 </wgt>
<wgt id='1493'> +7.6215745e+01 </wgt>
<wgt id='1494'> +7.6710104e+01 </wgt>
<wgt id='1495'> +7.6337718e+01 </wgt>
<wgt id='1496'> +7.6200141e+01 </wgt>
<wgt id='1497'> +7.6436048e+01 </wgt>
<wgt id='1498'> +7.6341357e+01 </wgt>
<wgt id='1499'> +7.6239917e+01 </wgt>
<wgt id='1500'> +7.6432171e+01 </wgt>
<wgt id='1501'> +7.6642975e+01 </wgt>
<wgt id='1502'> +7.6299618e+01 </wgt>
<wgt id='1503'> +7.6315602e+01 </wgt>
<wgt id='1504'> +7.6392589e+01 </wgt>
<wgt id='1505'> +7.6486092e+01 </wgt>
<wgt id='1506'> +7.6500469e+01 </wgt>
<wgt id='1507'> +7.6523058e+01 </wgt>
<wgt id='1508'> +7.6483660e+01 </wgt>
<wgt id='1509'> +7.6295567e+01 </wgt>
<wgt id='1510'> +7.6520205e+01 </wgt>
<wgt id='1511'> +7.6523538e+01 </wgt>
<wgt id='1512'> +7.6391900e+01 </wgt>
<wgt id='1513'> +7.6316390e+01 </wgt>
<wgt id='1514'> +7.6232320e+01 </wgt>
<wgt id='1515'> +7.6425930e+01 </wgt>
<wgt id='1516'> +7.6394604e+01 </wgt>
<wgt id='1517'> +7.6316852e+01 </wgt>
<wgt id='1518'> +7.6434831e+01 </wgt>
<wgt id='1519'> +7.6285663e+01 </wgt>
<wgt id='1520'> +7.6423306e+01 </wgt>
<wgt id='1521'> +7.6345815e+01 </wgt>
<wgt id='1522'> +7.6414719e+01 </wgt>
<wgt id='1523'> +7.6370859e+01 </wgt>
<wgt id='1524'> +7.6407409e+01 </wgt>
<wgt id='1525'> +7.6325898e+01 </wgt>
<wgt id='1526'> +7.6367452e+01 </wgt>
<wgt id='1527'> +7.6368484e+01 </wgt>
<wgt id='1528'> +7.6330707e+01 </wgt>
<wgt id='1529'> +7.6416871e+01 </wgt>
<wgt id='1530'> +7.6322691e+01 </wgt>
<wgt id='1531'> +7.6410698e+01 </wgt>
<wgt id='1532'> +7.6368983e+01 </wgt>
<wgt id='1533'> +7.6367528e+01 </wgt>
<wgt id='1534'> +7.6422770e+01 </wgt>
<wgt id='1535'> +7.6418417e+01 </wgt>
<wgt id='1536'> +7.6454786e+01 </wgt>
<wgt id='1537'> +7.6416743e+01 </wgt>
<wgt id='1538'> +7.6368524e+01 </wgt>
<wgt id='1539'> +7.6379261e+01 </wgt>
<wgt id='1540'> +7.6418654e+01 </wgt>
<wgt id='1541'> +7.6416631e+01 </wgt>
<wgt id='1542'> +7.6401022e+01 </wgt>
<wgt id='1543'> +7.6394850e+01 </wgt>
<wgt id='1544'> +7.6417567e+01 </wgt>
<wgt id='1545'> +7.6429520e+01 </wgt>
<wgt id='1546'> +7.6407545e+01 </wgt>
<wgt id='1547'> +7.6414846e+01 </wgt>
<wgt id='1548'> +7.6383684e+01 </wgt>
<wgt id='1549'> +7.6440010e+01 </wgt>
<wgt id='1550'> +7.6412864e+01 </wgt>
<wgt id='1551'> +7.6449294e+01 </wgt>
<wgt id='1552'> +7.6429110e+01 </wgt>
<wgt id='1553'> +7.6434943e+01 </wgt>
<wgt id='1554'> +7.6393609e+01 </wgt>
<wgt id='1555'> +7.6405586e+01 </wgt>
<wgt id='1556'> +7.6406766e+01 </wgt>
<wgt id='1557'> +7.6384002e+01 </wgt>
<wgt id='1558'> +7.6392068e+01 </wgt>
<wgt id='1559'> +7.6359881e+01 </wgt>
<wgt id='1560'> +7.6409787e+01 </wgt>
<wgt id='1561'> +7.6437581e+01 </wgt>
<wgt id='1562'> +7.6383030e+01 </wgt>
<wgt id='1563'> +7.6419934e+01 </wgt>
<wgt id='1564'> +7.6410032e+01 </wgt>
<wgt id='1565'> +7.6429341e+01 </wgt>
<wgt id='1566'> +7.6423402e+01 </wgt>
<wgt id='1567'> +7.4862627e+01 </wgt>
<wgt id='1568'> +7.7814602e+01 </wgt>
<wgt id='1569'> +7.6102087e+01 </wgt>
<wgt id='1570'> +7.6173229e+01 </wgt>
<wgt id='1571'> +7.6110085e+01 </wgt>
<wgt id='1572'> +7.5929340e+01 </wgt>
<wgt id='1573'> +7.6093272e+01 </wgt>
<wgt id='1574'> +7.6070864e+01 </wgt>
<wgt id='1575'> +7.6231943e+01 </wgt>
<wgt id='1576'> +7.6588940e+01 </wgt>
<wgt id='1577'> +7.6385135e+01 </wgt>
<wgt id='1578'> +7.6118524e+01 </wgt>
<wgt id='1579'> +7.6201014e+01 </wgt>
<wgt id='1580'> +7.6402122e+01 </wgt>
<wgt id='1581'> +7.5486154e+01 </wgt>
<wgt id='1582'> +7.5874821e+01 </wgt>
<wgt id='1583'> +7.5673832e+01 </wgt>
<wgt id='1584'> +7.5984985e+01 </wgt>
<wgt id='1585'> +7.6153462e+01 </wgt>
<wgt id='1586'> +7.6157908e+01 </wgt>
<wgt id='1587'> +7.6061315e+01 </wgt>
<wgt id='1588'> +7.5752845e+01 </wgt>
<wgt id='1589'> +7.6283822e+01 </wgt>
<wgt id='1590'> +7.6294316e+01 </wgt>
<wgt id='1591'> +7.5872993e+01 </wgt>
<wgt id='1592'> +7.6443137e+01 </wgt>
<wgt id='1593'> +7.6427655e+01 </wgt>
<wgt id='1594'> +7.5993429e+01 </wgt>
<wgt id='1595'> +7.6024405e+01 </wgt>
<wgt id='1596'> +7.6187619e+01 </wgt>
<wgt id='1597'> +7.6036392e+01 </wgt>
<wgt id='1598'> +7.5949245e+01 </wgt>
<wgt id='1599'> +7.6104049e+01 </wgt>
<wgt id='1600'> +7.6321864e+01 </wgt>
<wgt id='1601'> +7.6271183e+01 </wgt>
<wgt id='1602'> +7.6354551e+01 </wgt>
<wgt id='1603'> +7.6278908e+01 </wgt>
<wgt id='1604'> +7.5900182e+01 </wgt>
<wgt id='1605'> +7.6214660e+01 </wgt>
<wgt id='1606'> +7.6096868e+01 </wgt>
<wgt id='1607'> +7.6200035e+01 </wgt>
<wgt id='1608'> +7.5984132e+01 </wgt>
<wgt id='1609'> +7.6021071e+01 </wgt>
<wgt id='1610'> +7.6084911e+01 </wgt>
<wgt id='1611'> +7.6145953e+01 </wgt>
<wgt id='1612'> +7.5920500e+01 </wgt>
<wgt id='1613'> +7.6180656e+01 </wgt>
<wgt id='1614'> +7.6067096e+01 </wgt>
<wgt id='1615'> +7.6107749e+01 </wgt>
<wgt id='1616'> +7.5966622e+01 </wgt>
<wgt id='1617'> +7.6220966e+01 </wgt>
<wgt id='1618'> +7.5985110e+01 </wgt>
<wgt id='1619'> +7.6204180e+01 </wgt>
<wgt id='1620'> +7.6181484e+01 </wgt>
<wgt id='1621'> +7.6129505e+01 </wgt>
<wgt id='1622'> +7.6032714e+01 </wgt>
<wgt id='1623'> +7.6034399e+01 </wgt>
<wgt id='1624'> +7.6087272e+01 </wgt>
<wgt id='1625'> +7.6101136e+01 </wgt>
<wgt id='1626'> +7.6058571e+01 </wgt>
<wgt id='1627'> +7.5961013e+01 </wgt>
<wgt id='1628'> +7.6116802e+01 </wgt>
<wgt id='1629'> +7.6097540e+01 </wgt>
<wgt id='1630'> +7.6077560e+01 </wgt>
<wgt id='1631'> +7.6132749e+01 </wgt>
<wgt id='1632'> +7.6073110e+01 </wgt>
<wgt id='1633'> +7.6051650e+01 </wgt>
<wgt id='1634'> +7.6108969e+01 </wgt>
<wgt id='1635'> +7.6135682e+01 </wgt>
<wgt id='1636'> +7.6125368e+01 </wgt>
<wgt id='1637'> +7.6101993e+01 </wgt>
<wgt id='1638'> +7.6130150e+01 </wgt>
<wgt id='1639'> +7.6094246e+01 </wgt>
<wgt id='1640'> +7.6130704e+01 </wgt>
<wgt id='1641'> +7.6162666e+01 </wgt>
<wgt id='1642'> +7.6055813e+01 </wgt>
<wgt id='1643'> +7.6081117e+01 </wgt>
<wgt id='1644'> +7.6090130e+01 </wgt>
<wgt id='1645'> +7.6121912e+01 </wgt>
<wgt id='1646'> +7.6150361e+01 </wgt>
<wgt id='1647'> +7.6090341e+01 </wgt>
<wgt id='1648'> +7.6122688e+01 </wgt>
<wgt id='1649'> +7.6144777e+01 </wgt>
<wgt id='1650'> +7.6124705e+01 </wgt>
<wgt id='1651'> +7.6105415e+01 </wgt>
<wgt id='1652'> +7.6090210e+01 </wgt>
<wgt id='1653'> +7.6080051e+01 </wgt>
<wgt id='1654'> +7.6076995e+01 </wgt>
<wgt id='1655'> +7.6110466e+01 </wgt>
<wgt id='1656'> +7.6071519e+01 </wgt>
<wgt id='1657'> +7.6072719e+01 </wgt>
<wgt id='1658'> +7.6092129e+01 </wgt>
<wgt id='1659'> +7.6094751e+01 </wgt>
<wgt id='1660'> +7.6118805e+01 </wgt>
<wgt id='1661'> +7.6116328e+01 </wgt>
<wgt id='1662'> +7.6099741e+01 </wgt>
<wgt id='1663'> +7.6062925e+01 </wgt>
<wgt id='1664'> +7.6125282e+01 </wgt>
<wgt id='1665'> +7.6100197e+01 </wgt>
<wgt id='1666'> +7.6100164e+01 </wgt>
<wgt id='1667'> +7.6105630e+01 </wgt>
<wgt id='1668'> +7.6083670e+01 </wgt>
<wgt id='1669'> +7.6106106e+01 </wgt>
<wgt id='1670'> +7.4672245e+01 </wgt>
<wgt id='1671'> +7.7281658e+01 </wgt>
<wgt id='1672'> +7.6401380e+01 </wgt>
<wgt id='1673'> +7.5889719e+01 </wgt>
<wgt id='1674'> +7.6084973e+01 </wgt>
<wgt id='1675'> +7.6384673e+01 </wgt>
<wgt id='1676'> +7.7164489e+01 </wgt>
<wgt id='1677'> +7.6961443e+01 </wgt>
<wgt id='1678'> +7.6469152e+01 </wgt>
<wgt id='1679'> +7.6344437e+01 </wgt>
<wgt id='1680'> +7.6558332e+01 </wgt>
<wgt id='1681'> +7.6285187e+01 </wgt>
<wgt id='1682'> +7.6482945e+01 </wgt>
<wgt id='1683'> +7.6520834e+01 </wgt>
<wgt id='1684'> +7.6872911e+01 </wgt>
<wgt id='1685'> +7.6392053e+01 </wgt>
<wgt id='1686'> +7.6416258e+01 </wgt>
<wgt id='1687'> +7.6610065e+01 </wgt>
<wgt id='1688'> +7.6455208e+01 </wgt>
<wgt id='1689'> +7.5711691e+01 </wgt>
<wgt id='1690'> +7.6386323e+01 </wgt>
<wgt id='1691'> +7.6595591e+01 </wgt>
<wgt id='1692'> +7.6665976e+01 </wgt>
<wgt id='1693'> +7.6219500e+01 </wgt>
<wgt id='1694'> +7.6223093e+01 </wgt>
<wgt id='1695'> +7.6427067e+01 </wgt>
<wgt id='1696'> +7.6156561e+01 </wgt>
<wgt id='1697'> +7.6460390e+01 </wgt>
<wgt id='1698'> +7.6180459e+01 </wgt>
<wgt id='1699'> +7.6442247e+01 </wgt>
<wgt id='1700'> +7.6299131e+01 </wgt>
<wgt id='1701'> +7.6453847e+01 </wgt>
<wgt id='1702'> +7.6495322e+01 </wgt>
<wgt id='1703'> +7.4862627e+01 </wgt>
<wgt id='1704'> +7.7814602e+01 </wgt>
<wgt id='1705'> +7.6093549e+01 </wgt>
<wgt id='1706'> +7.6438179e+01 </wgt>
<wgt id='1707'> +7.6006474e+01 </wgt>
<wgt id='1708'> +7.6002920e+01 </wgt>
<wgt id='1709'> +7.5864680e+01 </wgt>
<wgt id='1710'> +7.5236569e+01 </wgt>
<wgt id='1711'> +7.6099837e+01 </wgt>
<wgt id='1712'> +7.6005714e+01 </wgt>
<wgt id='1713'> +7.5853442e+01 </wgt>
<wgt id='1714'> +7.5767738e+01 </wgt>
<wgt id='1715'> +7.6570129e+01 </wgt>
<wgt id='1716'> +7.6097036e+01 </wgt>
<wgt id='1717'> +7.6137593e+01 </wgt>
<wgt id='1718'> +7.6198897e+01 </wgt>
<wgt id='1719'> +7.6046410e+01 </wgt>
<wgt id='1720'> +7.5868196e+01 </wgt>
<wgt id='1721'> +7.5972343e+01 </wgt>
<wgt id='1722'> +7.5819352e+01 </wgt>
<wgt id='1723'> +7.6107698e+01 </wgt>
<wgt id='1724'> +7.6195940e+01 </wgt>
<wgt id='1725'> +7.5909176e+01 </wgt>
<wgt id='1726'> +7.6050655e+01 </wgt>
<wgt id='1727'> +7.6469475e+01 </wgt>
<wgt id='1728'> +7.6045238e+01 </wgt>
<wgt id='1729'> +7.6193957e+01 </wgt>
<wgt id='1730'> +7.6012822e+01 </wgt>
<wgt id='1731'> +7.6210552e+01 </wgt>
<wgt id='1732'> +7.6167131e+01 </wgt>
<wgt id='1733'> +7.6249160e+01 </wgt>
<wgt id='1734'> +7.6172362e+01 </wgt>
<wgt id='1735'> +7.6271527e+01 </wgt>
<wgt id='1736'> +7.4672245e+01 </wgt>
<wgt id='1737'> +7.7281658e+01 </wgt>
<wgt id='1738'> +8.3760315e+01 </wgt>
<wgt id='1739'> +8.3729550e+01 </wgt>
<wgt id='1740'> +8.3790879e+01 </wgt>
<wgt id='1741'> +8.3811738e+01 </wgt>
<wgt id='1742'> +8.3708627e+01 </wgt>
<wgt id='1743'> +8.3630502e+01 </wgt>
<wgt id='1744'> +8.3889430e+01 </wgt>
<wgt id='1745'> +8.3782636e+01 </wgt>
<wgt id='1746'> +8.3738246e+01 </wgt>
<wgt id='1747'> +8.4255432e+01 </wgt>
<wgt id='1748'> +8.3266299e+01 </wgt>
<wgt id='1749'> +8.3811499e+01 </wgt>
<wgt id='1750'> +8.3690711e+01 </wgt>
<wgt id='1751'> +8.3450503e+01 </wgt>
<wgt id='1752'> +8.4067871e+01 </wgt>
<wgt id='1753'> +8.3591469e+01 </wgt>
<wgt id='1754'> +8.3950894e+01 </wgt>
<wgt id='1755'> +8.3607112e+01 </wgt>
<wgt id='1756'> +8.3826972e+01 </wgt>
<wgt id='1757'> +8.3581772e+01 </wgt>
<wgt id='1758'> +8.3965367e+01 </wgt>
<wgt id='1759'> +8.4000047e+01 </wgt>
<wgt id='1760'> +8.3491231e+01 </wgt>
<wgt id='1761'> +8.3152928e+01 </wgt>
<wgt id='1762'> +8.4117850e+01 </wgt>
<wgt id='1763'> +8.4060570e+01 </wgt>
<wgt id='1764'> +8.3446794e+01 </wgt>
<wgt id='1765'> +8.3317734e+01 </wgt>
<wgt id='1766'> +8.4085260e+01 </wgt>
<wgt id='1767'> +8.3760315e+01 </wgt>
<wgt id='1768'> +8.3464931e+01 </wgt>
<wgt id='1769'> +8.4082549e+01 </wgt>
<wgt id='1770'> +8.3405721e+01 </wgt>
<wgt id='1771'> +8.3990007e+01 </wgt>
<wgt id='1772'> +8.4250835e+01 </wgt>
<wgt id='1773'> +8.3349613e+01 </wgt>
<wgt id='1774'> +8.3606208e+01 </wgt>
<wgt id='1775'> +8.3919550e+01 </wgt>
<wgt id='1776'> +8.3475148e+01 </wgt>
<wgt id='1777'> +8.4077827e+01 </wgt>
<wgt id='1778'> +8.3678904e+01 </wgt>
<wgt id='1779'> +8.4102425e+01 </wgt>
<wgt id='1780'> +8.5207304e+01 </wgt>
<wgt id='1781'> +8.1907292e+01 </wgt>
<wgt id='1782'> +8.1905738e+01 </wgt>
<wgt id='1783'> +8.1933994e+01 </wgt>
<wgt id='1784'> +8.1998637e+01 </wgt>
<wgt id='1785'> +8.1841073e+01 </wgt>
<wgt id='1786'> +8.1828302e+01 </wgt>
<wgt id='1787'> +8.2010530e+01 </wgt>
<wgt id='1788'> +8.1850682e+01 </wgt>
<wgt id='1789'> +8.1988688e+01 </wgt>
<wgt id='1790'> +8.2270526e+01 </wgt>
<wgt id='1791'> +8.1568212e+01 </wgt>
<wgt id='1792'> +8.2205109e+01 </wgt>
<wgt id='1793'> +8.1634334e+01 </wgt>
<wgt id='1794'> +8.1594831e+01 </wgt>
<wgt id='1795'> +8.2247556e+01 </wgt>
<wgt id='1796'> +8.1811975e+01 </wgt>
<wgt id='1797'> +8.2103287e+01 </wgt>
<wgt id='1798'> +8.2079169e+01 </wgt>
<wgt id='1799'> +8.1748698e+01 </wgt>
<wgt id='1800'> +8.1893157e+01 </wgt>
<wgt id='1801'> +8.1942950e+01 </wgt>
<wgt id='1802'> +8.1332486e+01 </wgt>
<wgt id='1803'> +8.2466173e+01 </wgt>
<wgt id='1804'> +8.2072583e+01 </wgt>
<wgt id='1805'> +8.1711700e+01 </wgt>
<wgt id='1806'> +8.1751388e+01 </wgt>
<wgt id='1807'> +8.1867197e+01 </wgt>
<wgt id='1808'> +8.1640740e+01 </wgt>
<wgt id='1809'> +8.2022247e+01 </wgt>
<wgt id='1810'> +8.1919257e+01 </wgt>
<wgt id='1811'> +8.1786878e+01 </wgt>
<wgt id='1812'> +8.1909969e+01 </wgt>
<wgt id='1813'> +8.1753143e+01 </wgt>
<wgt id='1814'> +8.2005103e+01 </wgt>
<wgt id='1815'> +8.2194979e+01 </wgt>
<wgt id='1816'> +8.1431036e+01 </wgt>
<wgt id='1817'> +8.1775962e+01 </wgt>
<wgt id='1818'> +8.2227805e+01 </wgt>
<wgt id='1819'> +8.1016665e+01 </wgt>
<wgt id='1820'> +8.2375623e+01 </wgt>
<wgt id='1821'> +8.1027868e+01 </wgt>
<wgt id='1822'> +8.2823433e+01 </wgt>
<wgt id='1823'> +8.1519900e+01 </wgt>
<wgt id='1824'> +7.6972626e+01 </wgt>
<wgt id='1825'> +7.6963263e+01 </wgt>
<wgt id='1826'> +7.6953833e+01 </wgt>
<wgt id='1827'> +7.6944480e+01 </wgt>
<wgt id='1828'> +7.6935055e+01 </wgt>
<wgt id='1829'> +7.6925700e+01 </wgt>
<wgt id='1830'> +7.6916063e+01 </wgt>
<wgt id='1831'> +7.6906674e+01 </wgt>
<wgt id='1832'> +7.6897261e+01 </wgt>
<wgt id='1833'> +7.6887863e+01 </wgt>
<wgt id='1834'> +7.6878498e+01 </wgt>
<wgt id='1835'> +7.6869120e+01 </wgt>
<wgt id='1836'> +7.6859699e+01 </wgt>
<wgt id='1837'> +7.6850254e+01 </wgt>
<wgt id='1838'> +7.6840897e+01 </wgt>
<wgt id='1839'> +7.6831538e+01 </wgt>
<wgt id='1840'> +7.6821901e+01 </wgt>
<wgt id='1841'> +7.6812514e+01 </wgt>
<wgt id='1842'> +7.6803062e+01 </wgt>
<wgt id='1843'> +7.6793663e+01 </wgt>
<wgt id='1844'> +7.6784256e+01 </wgt>
<wgt id='1845'> +7.6774877e+01 </wgt>
<wgt id='1846'> +7.6765515e+01 </wgt>
<wgt id='1847'> +7.6756110e+01 </wgt>
<wgt id='1848'> +7.6746707e+01 </wgt>
<wgt id='1849'> +7.6737097e+01 </wgt>
<wgt id='1850'> +7.6727731e+01 </wgt>
<wgt id='1851'> +7.6718353e+01 </wgt>
<wgt id='1852'> +7.6708925e+01 </wgt>
<wgt id='1853'> +7.6699558e+01 </wgt>
<wgt id='1854'> +7.6690152e+01 </wgt>
<wgt id='1855'> +7.5396932e+01 </wgt>
<wgt id='1856'> +7.5457449e+01 </wgt>
<wgt id='1857'> +7.5401842e+01 </wgt>
<wgt id='1858'> +7.5226896e+01 </wgt>
<wgt id='1859'> +7.5386175e+01 </wgt>
<wgt id='1860'> +7.5366030e+01 </wgt>
<wgt id='1861'> +7.5533089e+01 </wgt>
<wgt id='1862'> +7.5885878e+01 </wgt>
<wgt id='1863'> +7.5677568e+01 </wgt>
<wgt id='1864'> +7.5414340e+01 </wgt>
<wgt id='1865'> +7.5493094e+01 </wgt>
<wgt id='1866'> +7.5704711e+01 </wgt>
<wgt id='1867'> +7.4791466e+01 </wgt>
<wgt id='1868'> +7.5175944e+01 </wgt>
<wgt id='1869'> +7.4970994e+01 </wgt>
<wgt id='1870'> +7.5266070e+01 </wgt>
<wgt id='1871'> +7.5458722e+01 </wgt>
<wgt id='1872'> +7.5447601e+01 </wgt>
<wgt id='1873'> +7.5354112e+01 </wgt>
<wgt id='1874'> +7.5058581e+01 </wgt>
<wgt id='1875'> +7.5585105e+01 </wgt>
<wgt id='1876'> +7.5581201e+01 </wgt>
<wgt id='1877'> +7.5169334e+01 </wgt>
<wgt id='1878'> +7.5735812e+01 </wgt>
<wgt id='1879'> +7.5714087e+01 </wgt>
<wgt id='1880'> +7.5282672e+01 </wgt>
<wgt id='1881'> +7.5312575e+01 </wgt>
<wgt id='1882'> +7.5489396e+01 </wgt>
<wgt id='1883'> +7.5335470e+01 </wgt>
<wgt id='1884'> +7.5241684e+01 </wgt>
<wgt id='1885'> +7.5394981e+01 </wgt>
<wgt id='1886'> +7.5622878e+01 </wgt>
<wgt id='1887'> +7.5561117e+01 </wgt>
<wgt id='1888'> +7.5644221e+01 </wgt>
<wgt id='1889'> +7.5572161e+01 </wgt>
<wgt id='1890'> +7.5195301e+01 </wgt>
<wgt id='1891'> +7.5508443e+01 </wgt>
<wgt id='1892'> +7.5392601e+01 </wgt>
<wgt id='1893'> +7.5493206e+01 </wgt>
<wgt id='1894'> +7.5276573e+01 </wgt>
<wgt id='1895'> +7.5316062e+01 </wgt>
<wgt id='1896'> +7.5377974e+01 </wgt>
<wgt id='1897'> +7.5438658e+01 </wgt>
<wgt id='1898'> +7.5221292e+01 </wgt>
<wgt id='1899'> +7.5473987e+01 </wgt>
<wgt id='1900'> +7.5361958e+01 </wgt>
<wgt id='1901'> +7.5404047e+01 </wgt>
<wgt id='1902'> +7.5260999e+01 </wgt>
<wgt id='1903'> +7.5515532e+01 </wgt>
<wgt id='1904'> +7.5280403e+01 </wgt>
<wgt id='1905'> +7.5499004e+01 </wgt>
<wgt id='1906'> +7.5475412e+01 </wgt>
<wgt id='1907'> +7.5424603e+01 </wgt>
<wgt id='1908'> +7.5328754e+01 </wgt>
<wgt id='1909'> +7.5331057e+01 </wgt>
<wgt id='1910'> +7.5383293e+01 </wgt>
<wgt id='1911'> +7.5393814e+01 </wgt>
<wgt id='1912'> +7.5354017e+01 </wgt>
<wgt id='1913'> +7.5259904e+01 </wgt>
<wgt id='1914'> +7.5412578e+01 </wgt>
<wgt id='1915'> +7.5394000e+01 </wgt>
<wgt id='1916'> +7.5372764e+01 </wgt>
<wgt id='1917'> +7.5426641e+01 </wgt>
<wgt id='1918'> +7.5367426e+01 </wgt>
<wgt id='1919'> +7.5348656e+01 </wgt>
<wgt id='1920'> +7.5403178e+01 </wgt>
<wgt id='1921'> +7.5429599e+01 </wgt>
<wgt id='1922'> +7.5418966e+01 </wgt>
<wgt id='1923'> +7.5397143e+01 </wgt>
<wgt id='1924'> +7.5423459e+01 </wgt>
<wgt id='1925'> +7.5388546e+01 </wgt>
<wgt id='1926'> +7.5425966e+01 </wgt>
<wgt id='1927'> +7.5456409e+01 </wgt>
<wgt id='1928'> +7.5350185e+01 </wgt>
<wgt id='1929'> +7.5376569e+01 </wgt>
<wgt id='1930'> +7.5385379e+01 </wgt>
<wgt id='1931'> +7.5418333e+01 </wgt>
<wgt id='1932'> +7.5444419e+01 </wgt>
<wgt id='1933'> +7.5386695e+01 </wgt>
<wgt id='1934'> +7.5416767e+01 </wgt>
<wgt id='1935'> +7.5437905e+01 </wgt>
<wgt id='1936'> +7.5420587e+01 </wgt>
<wgt id='1937'> +7.5400899e+01 </wgt>
<wgt id='1938'> +7.5384756e+01 </wgt>
<wgt id='1939'> +7.5374372e+01 </wgt>
<wgt id='1940'> +7.5372699e+01 </wgt>
<wgt id='1941'> +7.5407019e+01 </wgt>
<wgt id='1942'> +7.5365977e+01 </wgt>
<wgt id='1943'> +7.5367076e+01 </wgt>
<wgt id='1944'> +7.5386248e+01 </wgt>
<wgt id='1945'> +7.5389144e+01 </wgt>
<wgt id='1946'> +7.5412191e+01 </wgt>
<wgt id='1947'> +7.5410122e+01 </wgt>
<wgt id='1948'> +7.5394743e+01 </wgt>
<wgt id='1949'> +7.5356969e+01 </wgt>
<wgt id='1950'> +7.5419678e+01 </wgt>
<wgt id='1951'> +7.5395539e+01 </wgt>
<wgt id='1952'> +7.5395021e+01 </wgt>
<wgt id='1953'> +7.5400137e+01 </wgt>
<wgt id='1954'> +7.5379423e+01 </wgt>
<wgt id='1955'> +7.5401275e+01 </wgt>
<wgt id='1956'> +7.5396483e+01 </wgt>
<wgt id='1957'> +7.5399424e+01 </wgt>
<wgt id='1958'> +7.5397413e+01 </wgt>
<wgt id='1959'> +7.5397490e+01 </wgt>
<wgt id='1960'> +7.5398337e+01 </wgt>
<wgt id='1961'> +7.5397138e+01 </wgt>
<wgt id='1962'> +7.5399963e+01 </wgt>
</rwgt>
</event>
<event npLO=" -1 " npNLO=" 0 ">
 6      0 +1.5146096e+02 4.06696790e+01 7.54677110e-03 1.16526560e-01
        1 -1    0    0  501    0 +0.0000000000e+00 +0.0000000000e+00 +1.9274389000e+02 1.9274389000e+02 0.0000000000e+00 0.0000e+00 9.0000e+00
       -1 -1    0    0    0  501 +0.0000000000e+00 +0.0000000000e+00 -1.1192574000e+01 1.1192574000e+01 0.0000000000e+00 0.0000e+00 9.0000e+00
       23  2    1    2    0    0 +0.0000000000e+00 +0.0000000000e+00 +1.8155132000e+02 2.0393647000e+02 9.2893493000e+01 0.0000e+00 0.0000e+00
       11  1    3    3    0    0 +5.5041331000e+00 +1.7913379000e+01 +2.6291681000e+01 3.2286794000e+01 0.0000000000e+00 0.0000e+00 9.0000e+00
      -11  1    3    3    0    0 -2.9762122000e+01 -2.3243217000e+01 +1.3313749000e+02 1.3838939000e+02 0.0000000000e+00 0.0000e+00 9.0000e+00
       22  1    3    3    0    0 +2.4257989000e+01 +5.3298382000e+00 +2.2122152000e+01 3.3260289000e+01 0.0000000000e+00 0.0000e+00 9.0000e+00
#aMCatNLO 1  0  0  2  1 0.70474709E+02 0.00000000E+00 -9  6  0 0.00000000E+00 0.00000000E+00 0.00000000E+00 0.00000000E+00 0.00000000E+00
<rwgt>
<wgt id='1001'> +1.5146000e+02 </wgt>
<wgt id='1002'> +1.5146000e+02 </wgt>
<wgt id='1003'> +1.4230000e+02 </wgt>
<wgt id='1004'> +1.5706000e+02 </wgt>
<wgt id='1005'> +1.5516000e+02 </wgt>
<wgt id='1006'> +1.5495000e+02 </wgt>
<wgt id='1007'> +1.3237000e+02 </wgt>
<wgt id='1008'> +1.4441000e+02 </wgt>
<wgt id='1009'> +1.5919000e+02 </wgt>
<wgt id='1010'> +1.5049000e+02 </wgt>
<wgt id='1011'> +1.5111000e+02 </wgt>
<wgt id='1012'> +1.5418000e+02 </wgt>
<wgt id='1013'> +1.5309000e+02 </wgt>
<wgt id='1014'> +1.4945000e+02 </wgt>
<wgt id='1015'> +1.5720000e+02 </wgt>
<wgt id='1016'> +1.5215000e+02 </wgt>
<wgt id='1017'> +1.5286000e+02 </wgt>
<wgt id='1018'> +1.4384000e+02 </wgt>
<wgt id='1019'> +1.4810000e+02 </wgt>
<wgt id='1020'> +1.4110000e+02 </wgt>
<wgt id='1021'> +1.5603000e+02 </wgt>
<wgt id='1022'> +1.4688000e+02 </wgt>
<wgt id='1023'> +1.6211000e+02 </wgt>
<wgt id='1024'> +1.5410000e+02 </wgt>
<wgt id='1025'> +1.5732000e+02 </wgt>
<wgt id='1026'> +1.4923000e+02 </wgt>
<wgt id='1027'> +1.5272000e+02 </wgt>
<wgt id='1028'> +1.5150000e+02 </wgt>
<wgt id='1029'> +1.4899000e+02 </wgt>
<wgt id='1030'> +1.5095000e+02 </wgt>
<wgt id='1031'> +1.5033000e+02 </wgt>
<wgt id='1032'> +1.5236000e+02 </wgt>
<wgt id='1033'> +1.5557000e+02 </wgt>
<wgt id='1034'> +1.4769000e+02 </wgt>
<wgt id='1035'> +1.5563000e+02 </wgt>
<wgt id='1036'> +1.4712000e+02 </wgt>
<wgt id='1037'> +1.5524000e+02 </wgt>
<wgt id='1038'> +1.4821000e+02 </wgt>
<wgt id='1039'> +1.5197000e+02 </wgt>
<wgt id='1040'> +1.4581000e+02 </wgt>
<wgt id='1041'> +1.4813000e+02 </wgt>
<wgt id='1042'> +1.5339000e+02 </wgt>
<wgt id='1043'> +1.5986000e+02 </wgt>
<wgt id='1044'> +1.5538000e+02 </wgt>
<wgt id='1045'> +1.5188000e+02 </wgt>
<wgt id='1046'> +1.4917000e+02 </wgt>
<wgt id='1047'> +1.5534000e+02 </wgt>
<wgt id='1048'> +1.5049000e+02 </wgt>
<wgt id='1049'> +1.5012000e+02 </wgt>
<wgt id='1050'> +1.5078000e+02 </wgt>
<wgt id='1051'> +1.4799000e+02 </wgt>
<wgt id='1052'> +1.5595000e+02 </wgt>
<wgt id='1053'> +1.5640000e+02 </wgt>
<wgt id='1054'> +1.4978000e+02 </wgt>
<wgt id='1055'> +1.4877000e+02 </wgt>
<wgt id='1056'> +1.5519000e+02 </wgt>
<wgt id='1057'> +1.5103000e+02 </wgt>
<wgt id='1058'> +1.4840000e+02 </wgt>
<wgt id='1059'> +1.5436000e+02 </wgt>
<wgt id='1060'> +1.5328000e+02 </wgt>
<wgt id='1061'> +1.5222000e+02 </wgt>
<wgt id='1062'> +1.5299000e+02 </wgt>
<wgt id='1063'> +1.5117000e+02 </wgt>
<wgt id='1064'> +1.5360000e+02 </wgt>
<wgt id='1065'> +1.4554000e+02 </wgt>
<wgt id='1066'> +1.4818000e+02 </wgt>
<wgt id='1067'> +1.5220000e+02 </wgt>
<wgt id='1068'> +1.5026000e+02 </wgt>
<wgt id='1069'> +1.6030000e+02 </wgt>
<wgt id='1070'> +1.5465000e+02 </wgt>
<wgt id='1071'> +1.5005000e+02 </wgt>
<wgt id='1072'> +1.4911000e+02 </wgt>
<wgt id='1073'> +1.5056000e+02 </wgt>
<wgt id='1074'> +1.4311000e+02 </wgt>
<wgt id='1075'> +1.4247000e+02 </wgt>
<wgt id='1076'> +1.4989000e+02 </wgt>
<wgt id='1077'> +1.5522000e+02 </wgt>
<wgt id='1078'> +1.3986000e+02 </wgt>
<wgt id='1079'> +1.5038000e+02 </wgt>
<wgt id='1080'> +1.5490000e+02 </wgt>
<wgt id='1081'> +1.5024000e+02 </wgt>
<wgt id='1082'> +1.5399000e+02 </wgt>
<wgt id='1083'> +1.5423000e+02 </wgt>
<wgt id='1084'> +1.5616000e+02 </wgt>
<wgt id='1085'> +1.4767000e+02 </wgt>
<wgt id='1086'> +1.5312000e+02 </wgt>
<wgt id='1087'> +1.5212000e+02 </wgt>
<wgt id='1088'> +1.5315000e+02 </wgt>
<wgt id='1089'> +1.5375000e+02 </wgt>
<wgt id='1090'> +1.5712000e+02 </wgt>
<wgt id='1091'> +1.4770000e+02 </wgt>
<wgt id='1092'> +1.5487000e+02 </wgt>
<wgt id='1093'> +1.5945000e+02 </wgt>
<wgt id='1094'> +1.4911000e+02 </wgt>
<wgt id='1095'> +1.4872000e+02 </wgt>
<wgt id='1096'> +1.5392000e+02 </wgt>
<wgt id='1097'> +1.4790000e+02 </wgt>
<wgt id='1098'> +1.5190000e+02 </wgt>
<wgt id='1099'> +1.5357000e+02 </wgt>
<wgt id='1100'> +1.5426000e+02 </wgt>
<wgt id='1101'> +1.5563000e+02 </wgt>
<wgt id='1102'> +1.4800000e+02 </wgt>
<wgt id='1103'> +1.5111000e+02 </wgt>
<wgt id='1104'> +1.5221000e+02 </wgt>
<wgt id='1105'> +1.5146096e+02 </wgt>
<wgt id='1106'> +7.5653354e+01 </wgt>
<wgt id='1107'> +7.5825952e+01 </wgt>
<wgt id='1108'> +8.3286947e+01 </wgt>
<wgt id='1109'> +8.3263049e+01 </wgt>
<wgt id='1110'> +8.3316529e+01 </wgt>
<wgt id='1111'> +6.7286414e+01 </wgt>
<wgt id='1112'> +6.7169428e+01 </wgt>
<wgt id='1113'> +6.7431225e+01 </wgt>
<wgt id='1114'> +8.2650527e+01 </wgt>
<wgt id='1115'> +8.8393326e+01 </wgt>
<wgt id='1116'> +8.4507608e+01 </wgt>
<wgt id='1117'> +7.6606417e+01 </wgt>
<wgt id='1118'> +7.9939230e+01 </wgt>
<wgt id='1119'> +8.1515332e+01 </wgt>
<wgt id='1120'> +8.7248053e+01 </wgt>
<wgt id='1121'> +8.4355355e+01 </wgt>
<wgt id='1122'> +7.9719222e+01 </wgt>
<wgt id='1123'> +8.2039025e+01 </wgt>
<wgt id='1124'> +8.0970147e+01 </wgt>
<wgt id='1125'> +8.1420223e+01 </wgt>
<wgt id='1126'> +8.1182453e+01 </wgt>
<wgt id='1127'> +8.1899087e+01 </wgt>
<wgt id='1128'> +8.1273749e+01 </wgt>
<wgt id='1129'> +8.5017926e+01 </wgt>
<wgt id='1130'> +8.3608783e+01 </wgt>
<wgt id='1131'> +8.6113637e+01 </wgt>
<wgt id='1132'> +8.2665208e+01 </wgt>
<wgt id='1133'> +8.2316028e+01 </wgt>
<wgt id='1134'> +7.9278855e+01 </wgt>
<wgt id='1135'> +8.0188127e+01 </wgt>
<wgt id='1136'> +8.3595343e+01 </wgt>
<wgt id='1137'> +8.6229780e+01 </wgt>
<wgt id='1138'> +8.3114419e+01 </wgt>
<wgt id='1139'> +8.2527606e+01 </wgt>
<wgt id='1140'> +8.1847842e+01 </wgt>
<wgt id='1141'> +8.6674104e+01 </wgt>
<wgt id='1142'> +8.2662561e+01 </wgt>
<wgt id='1143'> +8.4111392e+01 </wgt>
<wgt id='1144'> +8.5833759e+01 </wgt>
<wgt id='1145'> +8.1358649e+01 </wgt>
<wgt id='1146'> +8.3296298e+01 </wgt>
<wgt id='1147'> +8.5181002e+01 </wgt>
<wgt id='1148'> +8.0531348e+01 </wgt>
<wgt id='1149'> +8.3068177e+01 </wgt>
<wgt id='1150'> +8.2461970e+01 </wgt>
<wgt id='1151'> +8.3579527e+01 </wgt>
<wgt id='1152'> +8.2331506e+01 </wgt>
<wgt id='1153'> +7.9695377e+01 </wgt>
<wgt id='1154'> +7.9628694e+01 </wgt>
<wgt id='1155'> +8.0528234e+01 </wgt>
<wgt id='1156'> +8.4049478e+01 </wgt>
<wgt id='1157'> +8.3959130e+01 </wgt>
<wgt id='1158'> +8.3379583e+01 </wgt>
<wgt id='1159'> +8.3240126e+01 </wgt>
<wgt id='1160'> +8.3470861e+01 </wgt>
<wgt id='1161'> +8.3019076e+01 </wgt>
<wgt id='1162'> +7.8409165e+01 </wgt>
<wgt id='1163'> +8.5946972e+01 </wgt>
<wgt id='1164'> +8.3962956e+01 </wgt>
<wgt id='1165'> +8.2141899e+01 </wgt>
<wgt id='1166'> +8.2346722e+01 </wgt>
<wgt id='1167'> +8.3205045e+01 </wgt>
<wgt id='1168'> +8.6388916e+01 </wgt>
<wgt id='1169'> +7.8328392e+01 </wgt>
<wgt id='1170'> +8.4737700e+01 </wgt>
<wgt id='1171'> +8.7519552e+01 </wgt>
<wgt id='1172'> +8.2813752e+01 </wgt>
<wgt id='1173'> +8.3492526e+01 </wgt>
<wgt id='1174'> +8.2458089e+01 </wgt>
<wgt id='1175'> +8.3504641e+01 </wgt>
<wgt id='1176'> +8.4886334e+01 </wgt>
<wgt id='1177'> +8.0154361e+01 </wgt>
<wgt id='1178'> +7.8273806e+01 </wgt>
<wgt id='1179'> +8.4460420e+01 </wgt>
<wgt id='1180'> +8.4115913e+01 </wgt>
<wgt id='1181'> +8.1978691e+01 </wgt>
<wgt id='1182'> +8.5007633e+01 </wgt>
<wgt id='1183'> +8.3337523e+01 </wgt>
<wgt id='1184'> +8.2710226e+01 </wgt>
<wgt id='1185'> +8.2045372e+01 </wgt>
<wgt id='1186'> +8.5757873e+01 </wgt>
<wgt id='1187'> +7.8992396e+01 </wgt>
<wgt id='1188'> +7.9349666e+01 </wgt>
<wgt id='1189'> +8.1746927e+01 </wgt>
<wgt id='1190'> +8.2353888e+01 </wgt>
<wgt id='1191'> +8.0125923e+01 </wgt>
<wgt id='1192'> +8.3903029e+01 </wgt>
<wgt id='1193'> +8.1924779e+01 </wgt>
<wgt id='1194'> +8.0658427e+01 </wgt>
<wgt id='1195'> +8.2471517e+01 </wgt>
<wgt id='1196'> +8.3608783e+01 </wgt>
<wgt id='1197'> +7.9187832e+01 </wgt>
<wgt id='1198'> +8.1774272e+01 </wgt>
<wgt id='1199'> +8.2008121e+01 </wgt>
<wgt id='1200'> +8.7355814e+01 </wgt>
<wgt id='1201'> +8.4979716e+01 </wgt>
<wgt id='1202'> +8.4132801e+01 </wgt>
<wgt id='1203'> +7.6645283e+01 </wgt>
<wgt id='1204'> +8.1813716e+01 </wgt>
<wgt id='1205'> +8.3801365e+01 </wgt>
<wgt id='1206'> +8.0511722e+01 </wgt>
<wgt id='1207'> +8.2363875e+01 </wgt>
<wgt id='1208'> +8.6432298e+01 </wgt>
<wgt id='1209'> +8.2980572e+01 </wgt>
<wgt id='1210'> +8.2788010e+01 </wgt>
<wgt id='1211'> +8.1817462e+01 </wgt>
<wgt id='1212'> +8.1692970e+01 </wgt>
<wgt id='1213'> +8.0107530e+01 </wgt>
<wgt id='1214'> +8.2840070e+01 </wgt>
<wgt id='1215'> +7.9763686e+01 </wgt>
<wgt id='1216'> +8.0851905e+01 </wgt>
<wgt id='1217'> +8.0887717e+01 </wgt>
<wgt id='1218'> +8.0998723e+01 </wgt>
<wgt id='1219'> +8.0769228e+01 </wgt>
<wgt id='1220'> +8.1188353e+01 </wgt>
<wgt id='1221'> +8.1022490e+01 </wgt>
<wgt id='1222'> +8.0513045e+01 </wgt>
<wgt id='1223'> +8.1166077e+01 </wgt>
<wgt id='1224'> +8.1285934e+01 </wgt>
<wgt id='1225'> +8.1113871e+01 </wgt>
<wgt id='1226'> +8.0475857e+01 </wgt>
<wgt id='1227'> +8.0660433e+01 </wgt>
<wgt id='1228'> +8.0971108e+01 </wgt>
<wgt id='1229'> +8.1282579e+01 </wgt>
<wgt id='1230'> +8.0781677e+01 </wgt>
<wgt id='1231'> +8.0598327e+01 </wgt>
<wgt id='1232'> +8.1677276e+01 </wgt>
<wgt id='1233'> +8.0507226e+01 </wgt>
<wgt id='1234'> +8.1149407e+01 </wgt>
<wgt id='1235'> +8.0927846e+01 </wgt>
<wgt id='1236'> +8.0519938e+01 </wgt>
<wgt id='1237'> +8.1292741e+01 </wgt>
<wgt id='1238'> +8.0708331e+01 </wgt>
<wgt id='1239'> +8.0318422e+01 </wgt>
<wgt id='1240'> +8.1673395e+01 </wgt>
<wgt id='1241'> +8.0617637e+01 </wgt>
<wgt id='1242'> +8.1093262e+01 </wgt>
<wgt id='1243'> +8.0458863e+01 </wgt>
<wgt id='1244'> +8.0849595e+01 </wgt>
<wgt id='1245'> +8.1599041e+01 </wgt>
<wgt id='1246'> +8.0553092e+01 </wgt>
<wgt id='1247'> +8.0382868e+01 </wgt>
<wgt id='1248'> +8.1244463e+01 </wgt>
<wgt id='1249'> +8.0641058e+01 </wgt>
<wgt id='1250'> +8.0712114e+01 </wgt>
<wgt id='1251'> +8.1135894e+01 </wgt>
<wgt id='1252'> +8.0867841e+01 </wgt>
<wgt id='1253'> +8.0608334e+01 </wgt>
<wgt id='1254'> +8.0785848e+01 </wgt>
<wgt id='1255'> +8.0988281e+01 </wgt>
<wgt id='1256'> +8.0811362e+01 </wgt>
<wgt id='1257'> +8.1071493e+01 </wgt>
<wgt id='1258'> +8.0491301e+01 </wgt>
<wgt id='1259'> +8.0700240e+01 </wgt>
<wgt id='1260'> +8.0755011e+01 </wgt>
<wgt id='1261'> +8.0634388e+01 </wgt>
<wgt id='1262'> +8.1034123e+01 </wgt>
<wgt id='1263'> +8.1111967e+01 </wgt>
<wgt id='1264'> +8.0978695e+01 </wgt>
<wgt id='1265'> +8.0871417e+01 </wgt>
<wgt id='1266'> +8.0981403e+01 </wgt>
<wgt id='1267'> +8.0718980e+01 </wgt>
<wgt id='1268'> +8.0640533e+01 </wgt>
<wgt id='1269'> +8.0770209e+01 </wgt>
<wgt id='1270'> +8.0892948e+01 </wgt>
<wgt id='1271'> +8.0961821e+01 </wgt>
<wgt id='1272'> +8.0935503e+01 </wgt>
<wgt id='1273'> +8.0820803e+01 </wgt>
<wgt id='1274'> +8.0955789e+01 </wgt>
<wgt id='1275'> +8.0865484e+01 </wgt>
<wgt id='1276'> +8.0706864e+01 </wgt>
<wgt id='1277'> +8.0900511e+01 </wgt>
<wgt id='1278'> +8.1000638e+01 </wgt>
<wgt id='1279'> +8.0969063e+01 </wgt>
<wgt id='1280'> +8.0823758e+01 </wgt>
<wgt id='1281'> +8.0756681e+01 </wgt>
<wgt id='1282'> +8.0865328e+01 </wgt>
<wgt id='1283'> +8.0797520e+01 </wgt>
<wgt id='1284'> +8.0827046e+01 </wgt>
<wgt id='1285'> +8.0824475e+01 </wgt>
<wgt id='1286'> +8.0806619e+01 </wgt>
<wgt id='1287'> +8.0894602e+01 </wgt>
<wgt id='1288'> +8.1002470e+01 </wgt>
<wgt id='1289'> +8.0835713e+01 </wgt>
<wgt id='1290'> +8.0881590e+01 </wgt>
<wgt id='1291'> +8.0821376e+01 </wgt>
<wgt id='1292'> +8.0847550e+01 </wgt>
<wgt id='1293'> +8.0880762e+01 </wgt>
<wgt id='1294'> +8.0889919e+01 </wgt>
<wgt id='1295'> +8.0848104e+01 </wgt>
<wgt id='1296'> +8.0861381e+01 </wgt>
<wgt id='1297'> +8.0864227e+01 </wgt>
<wgt id='1298'> +8.0842046e+01 </wgt>
<wgt id='1299'> +8.0845163e+01 </wgt>
<wgt id='1300'> +8.0862377e+01 </wgt>
<wgt id='1301'> +8.0862329e+01 </wgt>
<wgt id='1302'> +8.0853873e+01 </wgt>
<wgt id='1303'> +8.0799194e+01 </wgt>
<wgt id='1304'> +8.0855127e+01 </wgt>
<wgt id='1305'> +8.0920080e+01 </wgt>
<wgt id='1306'> +8.0895839e+01 </wgt>
<wgt id='1307'> +8.0884533e+01 </wgt>
<wgt id='1308'> +8.0920913e+01 </wgt>
<wgt id='1309'> +8.0875860e+01 </wgt>
<wgt id='1310'> +8.0815622e+01 </wgt>
<wgt id='1311'> +8.0840403e+01 </wgt>
<wgt id='1312'> +8.0802543e+01 </wgt>
<wgt id='1313'> +8.0848566e+01 </wgt>
<wgt id='1314'> +8.0833793e+01 </wgt>
<wgt id='1315'> +8.0847771e+01 </wgt>
<wgt id='1316'> +8.0865949e+01 </wgt>
<wgt id='1317'> +8.0345824e+01 </wgt>
<wgt id='1318'> +8.1433191e+01 </wgt>
<wgt id='1319'> +8.5729237e+01 </wgt>
<wgt id='1320'> +7.6678088e+01 </wgt>
<wgt id='1321'> +7.8808395e+01 </wgt>
<wgt id='1322'> +7.5625567e+01 </wgt>
<wgt id='1323'> +7.7874993e+01 </wgt>
<wgt id='1324'> +7.6840694e+01 </wgt>
<wgt id='1325'> +7.8754451e+01 </wgt>
<wgt id='1326'> +7.5621414e+01 </wgt>
<wgt id='1327'> +7.7338902e+01 </wgt>
<wgt id='1328'> +7.7542674e+01 </wgt>
<wgt id='1329'> +7.6580564e+01 </wgt>
<wgt id='1330'> +7.5857078e+01 </wgt>
<wgt id='1331'> +7.5372488e+01 </wgt>
<wgt id='1332'> +7.8086746e+01 </wgt>
<wgt id='1333'> +7.4641555e+01 </wgt>
<wgt id='1334'> +7.7187153e+01 </wgt>
<wgt id='1335'> +7.7815851e+01 </wgt>
<wgt id='1336'> +7.4794762e+01 </wgt>
<wgt id='1337'> +7.9215558e+01 </wgt>
<wgt id='1338'> +7.3880431e+01 </wgt>
<wgt id='1339'> +7.7164425e+01 </wgt>
<wgt id='1340'> +7.6099697e+01 </wgt>
<wgt id='1341'> +7.7057444e+01 </wgt>
<wgt id='1342'> +7.5879464e+01 </wgt>
<wgt id='1343'> +7.8364556e+01 </wgt>
<wgt id='1344'> +7.5042350e+01 </wgt>
<wgt id='1345'> +7.6753750e+01 </wgt>
<wgt id='1346'> +7.6732771e+01 </wgt>
<wgt id='1347'> +7.6892252e+01 </wgt>
<wgt id='1348'> +7.6406531e+01 </wgt>
<wgt id='1349'> +7.5763531e+01 </wgt>
<wgt id='1350'> +7.6984300e+01 </wgt>
<wgt id='1351'> +7.7034041e+01 </wgt>
<wgt id='1352'> +7.6210076e+01 </wgt>
<wgt id='1353'> +7.6227636e+01 </wgt>
<wgt id='1354'> +7.7625954e+01 </wgt>
<wgt id='1355'> +7.8560672e+01 </wgt>
<wgt id='1356'> +7.5007112e+01 </wgt>
<wgt id='1357'> +7.7169579e+01 </wgt>
<wgt id='1358'> +7.5469871e+01 </wgt>
<wgt id='1359'> +7.6078464e+01 </wgt>
<wgt id='1360'> +7.6520929e+01 </wgt>
<wgt id='1361'> +7.6874810e+01 </wgt>
<wgt id='1362'> +7.7085467e+01 </wgt>
<wgt id='1363'> +7.6435759e+01 </wgt>
<wgt id='1364'> +7.6370157e+01 </wgt>
<wgt id='1365'> +7.6511504e+01 </wgt>
<wgt id='1366'> +7.5774023e+01 </wgt>
<wgt id='1367'> +7.5213879e+01 </wgt>
<wgt id='1368'> +7.7397727e+01 </wgt>
<wgt id='1369'> +7.6163273e+01 </wgt>
<wgt id='1370'> +7.6932339e+01 </wgt>
<wgt id='1371'> +7.5554641e+01 </wgt>
<wgt id='1372'> +7.5636653e+01 </wgt>
<wgt id='1373'> +7.5499987e+01 </wgt>
<wgt id='1374'> +7.6019525e+01 </wgt>
<wgt id='1375'> +7.6029547e+01 </wgt>
<wgt id='1376'> +7.8647003e+01 </wgt>
<wgt id='1377'> +7.5741391e+01 </wgt>
<wgt id='1378'> +7.7479139e+01 </wgt>
<wgt id='1379'> +7.9664011e+01 </wgt>
<wgt id='1380'> +7.8614386e+01 </wgt>
<wgt id='1381'> +8.0732762e+01 </wgt>
<wgt id='1382'> +6.6243813e+01 </wgt>
<wgt id='1383'> +7.6013364e+01 </wgt>
<wgt id='1384'> +8.2014811e+01 </wgt>
<wgt id='1385'> +6.8530284e+01 </wgt>
<wgt id='1386'> +6.8670600e+01 </wgt>
<wgt id='1387'> +6.8373384e+01 </wgt>
<wgt id='1388'> +6.8315256e+01 </wgt>
<wgt id='1389'> +6.8899030e+01 </wgt>
<wgt id='1390'> +6.8911680e+01 </wgt>
<wgt id='1391'> +6.8081388e+01 </wgt>
<wgt id='1392'> +6.8545117e+01 </wgt>
<wgt id='1393'> +6.8525845e+01 </wgt>
<wgt id='1394'> +6.8274421e+01 </wgt>
<wgt id='1395'> +6.8849602e+01 </wgt>
<wgt id='1396'> +6.8642113e+01 </wgt>
<wgt id='1397'> +6.8468809e+01 </wgt>
<wgt id='1398'> +6.7555782e+01 </wgt>
<wgt id='1399'> +6.9256687e+01 </wgt>
<wgt id='1400'> +6.8218359e+01 </wgt>
<wgt id='1401'> +6.8765507e+01 </wgt>
<wgt id='1402'> +6.8636478e+01 </wgt>
<wgt id='1403'> +6.8480135e+01 </wgt>
<wgt id='1404'> +6.6801126e+01 </wgt>
<wgt id='1405'> +6.9417530e+01 </wgt>
<wgt id='1406'> +6.8241681e+01 </wgt>
<wgt id='1407'> +6.9044445e+01 </wgt>
<wgt id='1408'> +6.8104255e+01 </wgt>
<wgt id='1409'> +6.9389538e+01 </wgt>
<wgt id='1410'> +6.8359031e+01 </wgt>
<wgt id='1411'> +6.8924526e+01 </wgt>
<wgt id='1412'> +6.8968937e+01 </wgt>
<wgt id='1413'> +6.7815485e+01 </wgt>
<wgt id='1414'> +6.8584982e+01 </wgt>
<wgt id='1415'> +6.8521826e+01 </wgt>
<wgt id='1416'> +6.7971195e+01 </wgt>
<wgt id='1417'> +6.8811330e+01 </wgt>
<wgt id='1418'> +6.8192731e+01 </wgt>
<wgt id='1419'> +6.9187268e+01 </wgt>
<wgt id='1420'> +6.8307622e+01 </wgt>
<wgt id='1421'> +6.9042767e+01 </wgt>
<wgt id='1422'> +6.9034260e+01 </wgt>
<wgt id='1423'> +6.7953604e+01 </wgt>
<wgt id='1424'> +6.8772170e+01 </wgt>
<wgt id='1425'> +6.8044941e+01 </wgt>
<wgt id='1426'> +6.9270317e+01 </wgt>
<wgt id='1427'> +6.8650375e+01 </wgt>
<wgt id='1428'> +6.8476166e+01 </wgt>
<wgt id='1429'> +6.7796760e+01 </wgt>
<wgt id='1430'> +6.8941701e+01 </wgt>
<wgt id='1431'> +6.9157179e+01 </wgt>
<wgt id='1432'> +6.9038672e+01 </wgt>
<wgt id='1433'> +6.9240870e+01 </wgt>
<wgt id='1434'> +6.8785692e+01 </wgt>
<wgt id='1435'> +6.8216928e+01 </wgt>
<wgt id='1436'> +7.4320044e+01 </wgt>
<wgt id='1437'> +7.4307715e+01 </wgt>
<wgt id='1438'> +7.4433729e+01 </wgt>
<wgt id='1439'> +7.4326874e+01 </wgt>
<wgt id='1440'> +7.4017978e+01 </wgt>
<wgt id='1441'> +7.4830433e+01 </wgt>
<wgt id='1442'> +7.4114905e+01 </wgt>
<wgt id='1443'> +7.4188139e+01 </wgt>
<wgt id='1444'> +7.4430772e+01 </wgt>
<wgt id='1445'> +7.3857874e+01 </wgt>
<wgt id='1446'> +7.4687071e+01 </wgt>
<wgt id='1447'> +7.4174665e+01 </wgt>
<wgt id='1448'> +7.4168428e+01 </wgt>
<wgt id='1449'> +7.4427834e+01 </wgt>
<wgt id='1450'> +7.4345442e+01 </wgt>
<wgt id='1451'> +7.4479312e+01 </wgt>
<wgt id='1452'> +7.4370200e+01 </wgt>
<wgt id='1453'> +7.4580147e+01 </wgt>
<wgt id='1454'> +7.4434770e+01 </wgt>
<wgt id='1455'> +7.4638960e+01 </wgt>
<wgt id='1456'> +7.4354048e+01 </wgt>
<wgt id='1457'> +7.4852883e+01 </wgt>
<wgt id='1458'> +7.4364900e+01 </wgt>
<wgt id='1459'> +7.3609644e+01 </wgt>
<wgt id='1460'> +7.4210195e+01 </wgt>
<wgt id='1461'> +7.4103055e+01 </wgt>
<wgt id='1462'> +7.3544576e+01 </wgt>
<wgt id='1463'> +7.5470865e+01 </wgt>
<wgt id='1464'> +7.4387713e+01 </wgt>
<wgt id='1465'> +7.4242964e+01 </wgt>
<wgt id='1466'> +7.6190940e+01 </wgt>
<wgt id='1467'> +7.6040640e+01 </wgt>
<wgt id='1468'> +7.5903632e+01 </wgt>
<wgt id='1469'> +7.7101225e+01 </wgt>
<wgt id='1470'> +7.5935010e+01 </wgt>
<wgt id='1471'> +7.6180163e+01 </wgt>
<wgt id='1472'> +7.5474980e+01 </wgt>
<wgt id='1473'> +7.6543185e+01 </wgt>
<wgt id='1474'> +7.6815992e+01 </wgt>
<wgt id='1475'> +7.6496664e+01 </wgt>
<wgt id='1476'> +7.6538265e+01 </wgt>
<wgt id='1477'> +7.5271781e+01 </wgt>
<wgt id='1478'> +7.5759587e+01 </wgt>
<wgt id='1479'> +7.5480867e+01 </wgt>
<wgt id='1480'> +7.6056982e+01 </wgt>
<wgt id='1481'> +7.5902648e+01 </wgt>
<wgt id='1482'> +7.5692181e+01 </wgt>
<wgt id='1483'> +7.6334808e+01 </wgt>
<wgt id='1484'> +7.7341340e+01 </wgt>
<wgt id='1485'> +7.5753094e+01 </wgt>
<wgt id='1486'> +7.6611866e+01 </wgt>
<wgt id='1487'> +7.6302307e+01 </wgt>
<wgt id='1488'> +7.6433139e+01 </wgt>
<wgt id='1489'> +7.6645675e+01 </wgt>
<wgt id='1490'> +7.5972829e+01 </wgt>
<wgt id='1491'> +7.6228067e+01 </wgt>
<wgt id='1492'> +7.5979137e+01 </wgt>
<wgt id='1493'> +7.6241339e+01 </wgt>
<wgt id='1494'> +7.5870356e+01 </wgt>
<wgt id='1495'> +7.5963602e+01 </wgt>
<wgt id='1496'> +7.5823467e+01 </wgt>
<wgt id='1497'> +7.6133875e+01 </wgt>
<wgt id='1498'> +7.6386455e+01 </wgt>
<wgt id='1499'> +7.5767805e+01 </wgt>
<wgt id='1500'> +7.6184829e+01 </wgt>
<wgt id='1501'> +7.6149932e+01 </wgt>
<wgt id='1502'> +7.6205284e+01 </wgt>
<wgt id='1503'> +7.6351677e+01 </wgt>
<wgt id='1504'> +7.5855705e+01 </wgt>
<wgt id='1505'> +7.6015429e+01 </wgt>
<wgt id='1506'> +7.6411990e+01 </wgt>
<wgt id='1507'> +7.5954053e+01 </wgt>
<wgt id='1508'> +7.6441767e+01 </wgt>
<wgt id='1509'> +7.6141315e+01 </wgt>
<wgt id='1510'> +7.6488235e+01 </wgt>
<wgt id='1511'> +7.6215418e+01 </wgt>
<wgt id='1512'> +7.6139265e+01 </wgt>
<wgt id='1513'> +7.6248782e+01 </wgt>
<wgt id='1514'> +7.6198094e+01 </wgt>
<wgt id='1515'> +7.6280880e+01 </wgt>
<wgt id='1516'> +7.6278097e+01 </wgt>
<wgt id='1517'> +7.6196811e+01 </wgt>
<wgt id='1518'> +7.6075164e+01 </wgt>
<wgt id='1519'> +7.6042055e+01 </wgt>
<wgt id='1520'> +7.6065217e+01 </wgt>
<wgt id='1521'> +7.6210774e+01 </wgt>
<wgt id='1522'> +7.6087737e+01 </wgt>
<wgt id='1523'> +7.6143855e+01 </wgt>
<wgt id='1524'> +7.6340992e+01 </wgt>
<wgt id='1525'> +7.6188855e+01 </wgt>
<wgt id='1526'> +7.6132558e+01 </wgt>
<wgt id='1527'> +7.6191562e+01 </wgt>
<wgt id='1528'> +7.6275942e+01 </wgt>
<wgt id='1529'> +7.6175952e+01 </wgt>
<wgt id='1530'> +7.6248261e+01 </wgt>
<wgt id='1531'> +7.6149634e+01 </wgt>
<wgt id='1532'> +7.6113865e+01 </wgt>
<wgt id='1533'> +7.6190080e+01 </wgt>
<wgt id='1534'> +7.6186021e+01 </wgt>
<wgt id='1535'> +7.6239507e+01 </wgt>
<wgt id='1536'> +7.6135480e+01 </wgt>
<wgt id='1537'> +7.6219240e+01 </wgt>
<wgt id='1538'> +7.6200489e+01 </wgt>
<wgt id='1539'> +7.6199880e+01 </wgt>
<wgt id='1540'> +7.6191003e+01 </wgt>
<wgt id='1541'> +7.6152935e+01 </wgt>
<wgt id='1542'> +7.6219047e+01 </wgt>
<wgt id='1543'> +7.6192243e+01 </wgt>
<wgt id='1544'> +7.6217505e+01 </wgt>
<wgt id='1545'> +7.6230628e+01 </wgt>
<wgt id='1546'> +7.6182574e+01 </wgt>
<wgt id='1547'> +7.6228854e+01 </wgt>
<wgt id='1548'> +7.6194771e+01 </wgt>
<wgt id='1549'> +7.6209709e+01 </wgt>
<wgt id='1550'> +7.6243258e+01 </wgt>
<wgt id='1551'> +7.6200877e+01 </wgt>
<wgt id='1552'> +7.6213681e+01 </wgt>
<wgt id='1553'> +7.6209640e+01 </wgt>
<wgt id='1554'> +7.6162781e+01 </wgt>
<wgt id='1555'> +7.6158685e+01 </wgt>
<wgt id='1556'> +7.6172260e+01 </wgt>
<wgt id='1557'> +7.6200692e+01 </wgt>
<wgt id='1558'> +7.6203629e+01 </wgt>
<wgt id='1559'> +7.6194375e+01 </wgt>
<wgt id='1560'> +7.6191647e+01 </wgt>
<wgt id='1561'> +7.6206877e+01 </wgt>
<wgt id='1562'> +7.6203734e+01 </wgt>
<wgt id='1563'> +7.6186519e+01 </wgt>
<wgt id='1564'> +7.6202782e+01 </wgt>
<wgt id='1565'> +7.6201992e+01 </wgt>
<wgt id='1566'> +7.6204978e+01 </wgt>
<wgt id='1567'> +7.5522315e+01 </wgt>
<wgt id='1568'> +7.6736499e+01 </wgt>
<wgt id='1569'> +8.0562684e+01 </wgt>
<wgt id='1570'> +8.0978228e+01 </wgt>
<wgt id='1571'> +8.0563657e+01 </wgt>
<wgt id='1572'> +8.0529513e+01 </wgt>
<wgt id='1573'> +8.0954894e+01 </wgt>
<wgt id='1574'> +8.1453106e+01 </wgt>
<wgt id='1575'> +8.0881550e+01 </wgt>
<wgt id='1576'> +8.0690424e+01 </wgt>
<wgt id='1577'> +8.0524683e+01 </wgt>
<wgt id='1578'> +8.0058199e+01 </wgt>
<wgt id='1579'> +8.0699508e+01 </wgt>
<wgt id='1580'> +8.1226967e+01 </wgt>
<wgt id='1581'> +8.0435203e+01 </wgt>
<wgt id='1582'> +8.0700599e+01 </wgt>
<wgt id='1583'> +7.9933682e+01 </wgt>
<wgt id='1584'> +8.2516259e+01 </wgt>
<wgt id='1585'> +8.0047708e+01 </wgt>
<wgt id='1586'> +8.0617806e+01 </wgt>
<wgt id='1587'> +8.0910127e+01 </wgt>
<wgt id='1588'> +7.9617162e+01 </wgt>
<wgt id='1589'> +8.0650732e+01 </wgt>
<wgt id='1590'> +8.0645014e+01 </wgt>
<wgt id='1591'> +7.9609137e+01 </wgt>
<wgt id='1592'> +8.0682388e+01 </wgt>
<wgt id='1593'> +8.0437851e+01 </wgt>
<wgt id='1594'> +8.0427462e+01 </wgt>
<wgt id='1595'> +8.0300054e+01 </wgt>
<wgt id='1596'> +8.0557321e+01 </wgt>
<wgt id='1597'> +8.0572839e+01 </wgt>
<wgt id='1598'> +8.0318819e+01 </wgt>
<wgt id='1599'> +8.0658298e+01 </wgt>
<wgt id='1600'> +8.0569910e+01 </wgt>
<wgt id='1601'> +8.0850174e+01 </wgt>
<wgt id='1602'> +8.1012858e+01 </wgt>
<wgt id='1603'> +8.0510846e+01 </wgt>
<wgt id='1604'> +8.1044128e+01 </wgt>
<wgt id='1605'> +7.9948137e+01 </wgt>
<wgt id='1606'> +8.0793581e+01 </wgt>
<wgt id='1607'> +8.0550733e+01 </wgt>
<wgt id='1608'> +8.0262957e+01 </wgt>
<wgt id='1609'> +8.0405608e+01 </wgt>
<wgt id='1610'> +8.0380965e+01 </wgt>
<wgt id='1611'> +8.0497455e+01 </wgt>
<wgt id='1612'> +8.0607575e+01 </wgt>
<wgt id='1613'> +8.0865474e+01 </wgt>
<wgt id='1614'> +8.0534018e+01 </wgt>
<wgt id='1615'> +8.0610978e+01 </wgt>
<wgt id='1616'> +8.0582807e+01 </wgt>
<wgt id='1617'> +8.0561310e+01 </wgt>
<wgt id='1618'> +8.0586050e+01 </wgt>
<wgt id='1619'> +8.0512809e+01 </wgt>
<wgt id='1620'> +8.0536624e+01 </wgt>
<wgt id='1621'> +8.0637671e+01 </wgt>
<wgt id='1622'> +8.0526865e+01 </wgt>
<wgt id='1623'> +8.0484946e+01 </wgt>
<wgt id='1624'> +8.0487173e+01 </wgt>
<wgt id='1625'> +8.0823254e+01 </wgt>
<wgt id='1626'> +8.0594922e+01 </wgt>
<wgt id='1627'> +8.0562814e+01 </wgt>
<wgt id='1628'> +8.0499527e+01 </wgt>
<wgt id='1629'> +8.0601208e+01 </wgt>
<wgt id='1630'> +8.0538523e+01 </wgt>
<wgt id='1631'> +8.0672750e+01 </wgt>
<wgt id='1632'> +8.0577180e+01 </wgt>
<wgt id='1633'> +8.0574655e+01 </wgt>
<wgt id='1634'> +8.0564398e+01 </wgt>
<wgt id='1635'> +8.0629022e+01 </wgt>
<wgt id='1636'> +8.0652295e+01 </wgt>
<wgt id='1637'> +8.0613542e+01 </wgt>
<wgt id='1638'> +8.0579640e+01 </wgt>
<wgt id='1639'> +8.0612192e+01 </wgt>
<wgt id='1640'> +8.0590493e+01 </wgt>
<wgt id='1641'> +8.0562523e+01 </wgt>
<wgt id='1642'> +8.0593623e+01 </wgt>
<wgt id='1643'> +8.0616143e+01 </wgt>
<wgt id='1644'> +8.0553137e+01 </wgt>
<wgt id='1645'> +8.0564930e+01 </wgt>
<wgt id='1646'> +8.0521042e+01 </wgt>
<wgt id='1647'> +8.0586367e+01 </wgt>
<wgt id='1648'> +8.0554093e+01 </wgt>
<wgt id='1649'> +8.0584371e+01 </wgt>
<wgt id='1650'> +8.0554955e+01 </wgt>
<wgt id='1651'> +8.0598865e+01 </wgt>
<wgt id='1652'> +8.0569463e+01 </wgt>
<wgt id='1653'> +8.0561746e+01 </wgt>
<wgt id='1654'> +8.0517825e+01 </wgt>
<wgt id='1655'> +8.0545760e+01 </wgt>
<wgt id='1656'> +8.0535102e+01 </wgt>
<wgt id='1657'> +8.0535408e+01 </wgt>
<wgt id='1658'> +8.0570047e+01 </wgt>
<wgt id='1659'> +8.0541545e+01 </wgt>
<wgt id='1660'> +8.0560323e+01 </wgt>
<wgt id='1661'> +8.0575508e+01 </wgt>
<wgt id='1662'> +8.0536866e+01 </wgt>
<wgt id='1663'> +8.0559577e+01 </wgt>
<wgt id='1664'> +8.0572253e+01 </wgt>
<wgt id='1665'> +8.0536659e+01 </wgt>
<wgt id='1666'> +8.0555505e+01 </wgt>
<wgt id='1667'> +8.0554693e+01 </wgt>
<wgt id='1668'> +8.0557451e+01 </wgt>
<wgt id='1669'> +8.0572434e+01 </wgt>
<wgt id='1670'> +7.9624362e+01 </wgt>
<wgt id='1671'> +8.1169380e+01 </wgt>
<wgt id='1672'> +7.6192366e+01 </wgt>
<wgt id='1673'> +7.6365108e+01 </wgt>
<wgt id='1674'> +7.5111914e+01 </wgt>
<wgt id='1675'> +7.6262083e+01 </wgt>
<wgt id='1676'> +7.7194959e+01 </wgt>
<wgt id='1677'> +7.6697094e+01 </wgt>
<wgt id='1678'> +7.6987815e+01 </wgt>
<wgt id='1679'> +7.6306390e+01 </wgt>
<wgt id='1680'> +7.6290004e+01 </wgt>
<wgt id='1681'> +7.6762019e+01 </wgt>
<wgt id='1682'> +7.6235419e+01 </wgt>
<wgt id='1683'> +7.5660377e+01 </wgt>
<wgt id='1684'> +7.6079794e+01 </wgt>
<wgt id='1685'> +7.6204723e+01 </wgt>
<wgt id='1686'> +7.4822014e+01 </wgt>
<wgt id='1687'> +7.6392527e+01 </wgt>
<wgt id='1688'> +7.6405661e+01 </wgt>
<wgt id='1689'> +7.5680635e+01 </wgt>
<wgt id='1690'> +7.6164643e+01 </wgt>
<wgt id='1691'> +7.6257643e+01 </wgt>
<wgt id='1692'> +7.6516218e+01 </wgt>
<wgt id='1693'> +7.6326786e+01 </wgt>
<wgt id='1694'> +7.6129758e+01 </wgt>
<wgt id='1695'> +7.6286928e+01 </wgt>
<wgt id='1696'> +7.6179649e+01 </wgt>
<wgt id='1697'> +7.6299497e+01 </wgt>
<wgt id='1698'> +7.5759061e+01 </wgt>
<wgt id='1699'> +7.6428690e+01 </wgt>
<wgt id='1700'> +7.6151805e+01 </wgt>
<wgt id='1701'> +7.6414811e+01 </wgt>
<wgt id='1702'> +7.6155569e+01 </wgt>
<wgt id='1703'> +7.5522315e+01 </wgt>
<wgt id='1704'> +7.6736499e+01 </wgt>
<wgt id='1705'> +8.0564318e+01 </wgt>
<wgt id='1706'> +8.1072212e+01 </wgt>
<wgt id='1707'> +8.2949604e+01 </wgt>
<wgt id='1708'> +8.0475911e+01 </wgt>
<wgt id='1709'> +7.9856561e+01 </wgt>
<wgt id='1710'> +8.0184778e+01 </wgt>
<wgt id='1711'> +8.0576339e+01 </wgt>
<wgt id='1712'> +8.0584281e+01 </wgt>
<wgt id='1713'> +8.0682595e+01 </wgt>
<wgt id='1714'> +8.0082245e+01 </wgt>
<wgt id='1715'> +8.0765270e+01 </wgt>
<wgt id='1716'> +8.0971328e+01 </wgt>
<wgt id='1717'> +8.0435334e+01 </wgt>
<wgt id='1718'> +8.0463633e+01 </wgt>
<wgt id='1719'> +8.0501139e+01 </wgt>
<wgt id='1720'> +8.0384450e+01 </wgt>
<wgt id='1721'> +8.0651582e+01 </wgt>
<wgt id='1722'> +8.0424080e+01 </wgt>
<wgt id='1723'> +8.0679926e+01 </wgt>
<wgt id='1724'> +8.0841525e+01 </wgt>
<wgt id='1725'> +7.9854456e+01 </wgt>
<wgt id='1726'> +7.9923696e+01 </wgt>
<wgt id='1727'> +8.0861431e+01 </wgt>
<wgt id='1728'> +8.0577121e+01 </wgt>
<wgt id='1729'> +8.0383913e+01 </wgt>
<wgt id='1730'> +8.0365564e+01 </wgt>
<wgt id='1731'> +8.0701015e+01 </wgt>
<wgt id='1732'> +8.0502076e+01 </wgt>
<wgt id='1733'> +8.0254776e+01 </wgt>
<wgt id='1734'> +8.0468565e+01 </wgt>
<wgt id='1735'> +8.0483664e+01 </wgt>
<wgt id='1736'> +7.9624362e+01 </wgt>
<wgt id='1737'> +8.1169380e+01 </wgt>
<wgt id='1738'> +7.8006831e+01 </wgt>
<wgt id='1739'> +7.8158482e+01 </wgt>
<wgt id='1740'> +7.7856222e+01 </wgt>
<wgt id='1741'> +7.7996030e+01 </wgt>
<wgt id='1742'> +7.8017403e+01 </wgt>
<wgt id='1743'> +7.8104865e+01 </wgt>
<wgt id='1744'> +7.7908783e+01 </wgt>
<wgt id='1745'> +7.7757037e+01 </wgt>
<wgt id='1746'> +7.8247570e+01 </wgt>
<wgt id='1747'> +7.8389662e+01 </wgt>
<wgt id='1748'> +7.7603077e+01 </wgt>
<wgt id='1749'> +7.8166845e+01 </wgt>
<wgt id='1750'> +7.7818087e+01 </wgt>
<wgt id='1751'> +7.7969371e+01 </wgt>
<wgt id='1752'> +7.8041168e+01 </wgt>
<wgt id='1753'> +7.8128106e+01 </wgt>
<wgt id='1754'> +7.7918704e+01 </wgt>
<wgt id='1755'> +7.8075521e+01 </wgt>
<wgt id='1756'> +7.7833107e+01 </wgt>
<wgt id='1757'> +7.7429892e+01 </wgt>
<wgt id='1758'> +7.8552338e+01 </wgt>
<wgt id='1759'> +7.7379858e+01 </wgt>
<wgt id='1760'> +7.8526050e+01 </wgt>
<wgt id='1761'> +7.8085587e+01 </wgt>
<wgt id='1762'> +7.7547420e+01 </wgt>
<wgt id='1763'> +7.8285963e+01 </wgt>
<wgt id='1764'> +7.7795561e+01 </wgt>
<wgt id='1765'> +7.8184301e+01 </wgt>
<wgt id='1766'> +7.7858878e+01 </wgt>
<wgt id='1767'> +7.8006831e+01 </wgt>
<wgt id='1768'> +8.0792524e+01 </wgt>
<wgt id='1769'> +7.4873463e+01 </wgt>
<wgt id='1770'> +8.3844810e+01 </wgt>
<wgt id='1771'> +8.0383179e+01 </wgt>
<wgt id='1772'> +7.8318106e+01 </wgt>
<wgt id='1773'> +7.8058482e+01 </wgt>
<wgt id='1774'> +7.7942803e+01 </wgt>
<wgt id='1775'> +7.8046560e+01 </wgt>
<wgt id='1776'> +7.7331057e+01 </wgt>
<wgt id='1777'> +7.8635659e+01 </wgt>
<wgt id='1778'> +7.7570322e+01 </wgt>
<wgt id='1779'> +7.8971610e+01 </wgt>
<wgt id='1780'> +7.5732901e+01 </wgt>
<wgt id='1781'> +8.0698784e+01 </wgt>
<wgt id='1782'> +8.0865459e+01 </wgt>
<wgt id='1783'> +8.0521773e+01 </wgt>
<wgt id='1784'> +8.0627753e+01 </wgt>
<wgt id='1785'> +8.0758487e+01 </wgt>
<wgt id='1786'> +8.0772618e+01 </wgt>
<wgt id='1787'> +8.0613816e+01 </wgt>
<wgt id='1788'> +8.0361298e+01 </wgt>
<wgt id='1789'> +8.1009667e+01 </wgt>
<wgt id='1790'> +8.1035309e+01 </wgt>
<wgt id='1791'> +8.0345013e+01 </wgt>
<wgt id='1792'> +8.0979527e+01 </wgt>
<wgt id='1793'> +8.0391297e+01 </wgt>
<wgt id='1794'> +8.0491109e+01 </wgt>
<wgt id='1795'> +8.0898280e+01 </wgt>
<wgt id='1796'> +8.0683625e+01 </wgt>
<wgt id='1797'> +8.0791510e+01 </wgt>
<wgt id='1798'> +8.0577521e+01 </wgt>
<wgt id='1799'> +8.0786488e+01 </wgt>
<wgt id='1800'> +8.0355987e+01 </wgt>
<wgt id='1801'> +8.0972365e+01 </wgt>
<wgt id='1802'> +8.0674715e+01 </wgt>
<wgt id='1803'> +8.0607130e+01 </wgt>
<wgt id='1804'> +8.1339584e+01 </wgt>
<wgt id='1805'> +8.0058295e+01 </wgt>
<wgt id='1806'> +8.1725530e+01 </wgt>
<wgt id='1807'> +7.9569630e+01 </wgt>
<wgt id='1808'> +8.1653376e+01 </wgt>
<wgt id='1809'> +7.9821839e+01 </wgt>
<wgt id='1810'> +8.0698789e+01 </wgt>
<wgt id='1811'> +8.3872638e+01 </wgt>
<wgt id='1812'> +7.6899298e+01 </wgt>
<wgt id='1813'> +8.6863538e+01 </wgt>
<wgt id='1814'> +8.2521161e+01 </wgt>
<wgt id='1815'> +8.2627967e+01 </wgt>
<wgt id='1816'> +8.0286481e+01 </wgt>
<wgt id='1817'> +8.0574533e+01 </wgt>
<wgt id='1818'> +8.0521623e+01 </wgt>
<wgt id='1819'> +8.0237695e+01 </wgt>
<wgt id='1820'> +8.3141987e+01 </wgt>
<wgt id='1821'> +8.0954835e+01 </wgt>
<wgt id='1822'> +8.0439157e+01 </wgt>
<wgt id='1823'> +7.9534532e+01 </wgt>
<wgt id='1824'> +7.6013220e+01 </wgt>
<wgt id='1825'> +7.5982570e+01 </wgt>
<wgt id='1826'> +7.5952145e+01 </wgt>
<wgt id='1827'> +7.5921635e+01 </wgt>
<wgt id='1828'> +7.5891127e+01 </wgt>
<wgt id='1829'> +7.5860658e+01 </wgt>
<wgt id='1830'> +7.5830074e+01 </wgt>
<wgt id='1831'> +7.5799511e+01 </wgt>
<wgt id='1832'> +7.5769126e+01 </wgt>
<wgt id='1833'> +7.5738572e+01 </wgt>
<wgt id='1834'> +7.5708099e+01 </wgt>
<wgt id='1835'> +7.5677492e+01 </wgt>
<wgt id='1836'> +7.5647113e+01 </wgt>
<wgt id='1837'> +7.5616657e+01 </wgt>
<wgt id='1838'> +7.5586226e+01 </wgt>
<wgt id='1839'> +7.5555790e+01 </wgt>
<wgt id='1840'> +7.5525314e+01 </wgt>
<wgt id='1841'> +7.5494851e+01 </wgt>
<wgt id='1842'> +7.5464450e+01 </wgt>
<wgt id='1843'> +7.5434269e+01 </wgt>
<wgt id='1844'> +7.5403853e+01 </wgt>
<wgt id='1845'> +7.5373290e+01 </wgt>
<wgt id='1846'> +7.5342814e+01 </wgt>
<wgt id='1847'> +7.5312507e+01 </wgt>
<wgt id='1848'> +7.5281991e+01 </wgt>
<wgt id='1849'> +7.5251779e+01 </wgt>
<wgt id='1850'> +7.5221232e+01 </wgt>
<wgt id='1851'> +7.5190952e+01 </wgt>
<wgt id='1852'> +7.5160600e+01 </wgt>
<wgt id='1853'> +7.5130183e+01 </wgt>
<wgt id='1854'> +7.5099914e+01 </wgt>
<wgt id='1855'> +8.0215577e+01 </wgt>
<wgt id='1856'> +8.0600196e+01 </wgt>
<wgt id='1857'> +8.0209093e+01 </wgt>
<wgt id='1858'> +8.0183890e+01 </wgt>
<wgt id='1859'> +8.0599505e+01 </wgt>
<wgt id='1860'> +8.1101599e+01 </wgt>
<wgt id='1861'> +8.0554788e+01 </wgt>
<wgt id='1862'> +8.0363841e+01 </wgt>
<wgt id='1863'> +8.0179098e+01 </wgt>
<wgt id='1864'> +7.9714917e+01 </wgt>
<wgt id='1865'> +8.0346030e+01 </wgt>
<wgt id='1866'> +8.0907638e+01 </wgt>
<wgt id='1867'> +8.0103165e+01 </wgt>
<wgt id='1868'> +8.0365902e+01 </wgt>
<wgt id='1869'> +7.9585498e+01 </wgt>
<wgt id='1870'> +8.2124943e+01 </wgt>
<wgt id='1871'> +7.9731290e+01 </wgt>
<wgt id='1872'> +8.0257999e+01 </wgt>
<wgt id='1873'> +8.0553927e+01 </wgt>
<wgt id='1874'> +7.9291312e+01 </wgt>
<wgt id='1875'> +8.0324888e+01 </wgt>
<wgt id='1876'> +8.0286591e+01 </wgt>
<wgt id='1877'> +7.9259236e+01 </wgt>
<wgt id='1878'> +8.0344955e+01 </wgt>
<wgt id='1879'> +8.0077549e+01 </wgt>
<wgt id='1880'> +8.0058335e+01 </wgt>
<wgt id='1881'> +7.9932851e+01 </wgt>
<wgt id='1882'> +8.0234663e+01 </wgt>
<wgt id='1883'> +8.0235533e+01 </wgt>
<wgt id='1884'> +7.9960360e+01 </wgt>
<wgt id='1885'> +8.0300286e+01 </wgt>
<wgt id='1886'> +8.0247681e+01 </wgt>
<wgt id='1887'> +8.0492924e+01 </wgt>
<wgt id='1888'> +8.0655575e+01 </wgt>
<wgt id='1889'> +8.0163876e+01 </wgt>
<wgt id='1890'> +8.0689330e+01 </wgt>
<wgt id='1891'> +7.9605203e+01 </wgt>
<wgt id='1892'> +8.0446702e+01 </wgt>
<wgt id='1893'> +8.0201432e+01 </wgt>
<wgt id='1894'> +7.9907969e+01 </wgt>
<wgt id='1895'> +8.0059921e+01 </wgt>
<wgt id='1896'> +8.0028486e+01 </wgt>
<wgt id='1897'> +8.0146960e+01 </wgt>
<wgt id='1898'> +8.0273375e+01 </wgt>
<wgt id='1899'> +8.0514727e+01 </wgt>
<wgt id='1900'> +8.0184540e+01 </wgt>
<wgt id='1901'> +8.0270320e+01 </wgt>
<wgt id='1902'> +8.0231323e+01 </wgt>
<wgt id='1903'> +8.0217893e+01 </wgt>
<wgt id='1904'> +8.0236637e+01 </wgt>
<wgt id='1905'> +8.0167495e+01 </wgt>
<wgt id='1906'> +8.0187105e+01 </wgt>
<wgt id='1907'> +8.0289375e+01 </wgt>
<wgt id='1908'> +8.0180137e+01 </wgt>
<wgt id='1909'> +8.0141421e+01 </wgt>
<wgt id='1910'> +8.0143058e+01 </wgt>
<wgt id='1911'> +8.0467341e+01 </wgt>
<wgt id='1912'> +8.0248614e+01 </wgt>
<wgt id='1913'> +8.0222808e+01 </wgt>
<wgt id='1914'> +8.0156913e+01 </wgt>
<wgt id='1915'> +8.0258266e+01 </wgt>
<wgt id='1916'> +8.0192938e+01 </wgt>
<wgt id='1917'> +8.0323283e+01 </wgt>
<wgt id='1918'> +8.0226328e+01 </wgt>
<wgt id='1919'> +8.0230758e+01 </wgt>
<wgt id='1920'> +8.0215997e+01 </wgt>
<wgt id='1921'> +8.0280612e+01 </wgt>
<wgt id='1922'> +8.0301517e+01 </wgt>
<wgt id='1923'> +8.0267049e+01 </wgt>
<wgt id='1924'> +8.0228531e+01 </wgt>
<wgt id='1925'> +8.0263665e+01 </wgt>
<wgt id='1926'> +8.0245294e+01 </wgt>
<wgt id='1927'> +8.0212896e+01 </wgt>
<wgt id='1928'> +8.0244399e+01 </wgt>
<wgt id='1929'> +8.0268789e+01 </wgt>
<wgt id='1930'> +8.0206861e+01 </wgt>
<wgt id='1931'> +8.0222743e+01 </wgt>
<wgt id='1932'> +8.0174569e+01 </wgt>
<wgt id='1933'> +8.0242193e+01 </wgt>
<wgt id='1934'> +8.0207120e+01 </wgt>
<wgt id='1935'> +8.0233123e+01 </wgt>
<wgt id='1936'> +8.0212119e+01 </wgt>
<wgt id='1937'> +8.0253184e+01 </wgt>
<wgt id='1938'> +8.0222522e+01 </wgt>
<wgt id='1939'> +8.0212816e+01 </wgt>
<wgt id='1940'> +8.0172264e+01 </wgt>
<wgt id='1941'> +8.0203688e+01 </wgt>
<wgt id='1942'> +8.0186522e+01 </wgt>
<wgt id='1943'> +8.0185959e+01 </wgt>
<wgt id='1944'> +8.0220275e+01 </wgt>
<wgt id='1945'> +8.0193271e+01 </wgt>
<wgt id='1946'> +8.0210159e+01 </wgt>
<wgt id='1947'> +8.0225625e+01 </wgt>
<wgt id='1948'> +8.0190884e+01 </wgt>
<wgt id='1949'> +8.0208364e+01 </wgt>
<wgt id='1950'> +8.0224849e+01 </wgt>
<wgt id='1951'> +8.0191240e+01 </wgt>
<wgt id='1952'> +8.0208646e+01 </wgt>
<wgt id='1953'> +8.0206501e+01 </wgt>
<wgt id='1954'> +8.0211935e+01 </wgt>
<wgt id='1955'> +8.0226353e+01 </wgt>
<wgt id='1956'> +8.0215311e+01 </wgt>
<wgt id='1957'> +8.0217007e+01 </wgt>
<wgt id='1958'> +8.0215848e+01 </wgt>
<wgt id='1959'> +8.0215900e+01 </wgt>
<wgt id='1960'> +8.0216383e+01 </wgt>
<wgt id='1961'> +8.0215694e+01 </wgt>
<wgt id='1962'> +8.0217284e+01 </wgt>
</rwgt>
</event>
<event npLO=" -1 " npNLO=" 1 ">
 8      1 +1.5146096e+02 3.40487870e+01 7.54677110e-03 1.34274480e-01
       21 -1    0    0  501  502 +0.0000000000e+00 +0.0000000000e+00 +4.4581564000e+02 4.4581564000e+02 0.0000000000e+00 0.0000e+00 9.0000e+00
        2 -1    0    0  503    0 +0.0000000000e+00 +0.0000000000e+00 -1.8316821000e+01 1.8316821000e+01 0.0000000000e+00 0.0000e+00 9.0000e+00
       23  2    1    2    0    0 +2.3386510000e+01 -1.9524962000e+01 +1.8649345000e+02 2.0959570000e+02 9.0677435000e+01 0.0000e+00 0.0000e+00
       11  1    3    3    0    0 +2.0386274000e+01 +8.1031125000e+00 +6.7624711000e+01 7.1094037000e+01 0.0000000000e+00 0.0000e+00 9.0000e+00
      -11  1    3    3    0    0 -1.9066738000e+01 -3.5683039000e+01 +4.2830731000e+01 5.8917666000e+01 0.0000000000e+00 0.0000e+00 9.0000e+00
       22  1    3    3    0    0 +2.2066974000e+01 +8.0549646000e+00 +7.6038012000e+01 7.9584000000e+01 0.0000000000e+00 0.0000e+00 9.0000e+00
        2  1    1    2  501    0 -4.0556104000e+01 +1.4339641000e+01 +2.2887965000e+02 2.3288692000e+02 0.0000000000e+00 0.0000e+00 9.0000e+00
       21  1    1    2  503  502 +1.7169594000e+01 +5.1853206000e+00 +1.2125710000e+01 2.1649835000e+01 0.0000000000e+00 0.0000e+00 9.0000e+00
#aMCatNLO 2  0  0  2  1 0.21289114E+02 0.00000000E+00 -9  7  0 0.00000000E+00 0.00000000E+00 0.00000000E+00 0.00000000E+00 0.00000000E+00
<rwgt>
<wgt id='1001'> +1.5146000e+02 </wgt>
<wgt id='1002'> +1.5146000e+02 </wgt>
<wgt id='1003'> +1.4762000e+02 </wgt>
<wgt id='1004'> +1.5360000e+02 </wgt>
<wgt id='1005'> +1.5780000e+02 </wgt>
<wgt id='1006'> +1.4981000e+02 </wgt>
<wgt id='1007'> +1.4765000e+02 </wgt>
<wgt id='1008'> +1.5462000e+02 </wgt>
<wgt id='1009'> +1.5200000e+02 </wgt>
<wgt id='1010'> +1.4997000e+02 </wgt>
<wgt id='1011'> +1.5323000e+02 </wgt>
<wgt id='1012'> +1.4642000e+02 </wgt>
<wgt id='1013'> +1.3826000e+02 </wgt>
<wgt id='1014'> +1.5394000e+02 </wgt>
<wgt id='1015'> +1.5680000e+02 </wgt>
<wgt id='1016'> +1.5043000e+02 </wgt>
<wgt id='1017'> +1.5462000e+02 </wgt>
<wgt id='1018'> +1.5216000e+02 </wgt>
<wgt id='1019'> +1.5166000e+02 </wgt>
<wgt id='1020'> +1.5059000e+02 </wgt>
<wgt id='1021'> +1.5388000e+02 </wgt>
<wgt id='1022'> +1.5899000e+02 </wgt>
<wgt id='1023'> +1.5365000e+02 </wgt>
<wgt id='1024'> +1.4596000e+02 </wgt>
<wgt id='1025'> +1.5770000e+02 </wgt>
<wgt id='1026'> +1.5476000e+02 </wgt>
<wgt id='1027'> +1.5159000e+02 </wgt>
<wgt id='1028'> +1.4956000e+02 </wgt>
<wgt id='1029'> +1.5410000e+02 </wgt>
<wgt id='1030'> +1.5162000e+02 </wgt>
<wgt id='1031'> +1.5605000e+02 </wgt>
<wgt id='1032'> +1.5704000e+02 </wgt>
<wgt id='1033'> +1.5430000e+02 </wgt>
<wgt id='1034'> +1.4266000e+02 </wgt>
<wgt id='1035'> +1.4945000e+02 </wgt>
<wgt id='1036'> +1.5149000e+02 </wgt>
<wgt id='1037'> +1.5579000e+02 </wgt>
<wgt id='1038'> +1.5150000e+02 </wgt>
<wgt id='1039'> +1.5472000e+02 </wgt>
<wgt id='1040'> +1.4638000e+02 </wgt>
<wgt id='1041'> +1.5135000e+02 </wgt>
<wgt id='1042'> +1.5013000e+02 </wgt>
<wgt id='1043'> +1.5320000e+02 </wgt>
<wgt id='1044'> +1.5232000e+02 </wgt>
<wgt id='1045'> +1.5004000e+02 </wgt>
<wgt id='1046'> +1.5071000e+02 </wgt>
<wgt id='1047'> +1.5093000e+02 </wgt>
<wgt id='1048'> +1.5511000e+02 </wgt>
<wgt id='1049'> +1.4828000e+02 </wgt>
<wgt id='1050'> +1.5090000e+02 </wgt>
<wgt id='1051'> +1.5140000e+02 </wgt>
<wgt id='1052'> +1.5203000e+02 </wgt>
<wgt id='1053'> +1.4991000e+02 </wgt>
<wgt id='1054'> +1.5038000e+02 </wgt>
<wgt id='1055'> +1.5120000e+02 </wgt>
<wgt id='1056'> +1.5078000e+02 </wgt>
<wgt id='1057'> +1.4913000e+02 </wgt>
<wgt id='1058'> +1.5062000e+02 </wgt>
<wgt id='1059'> +1.5447000e+02 </wgt>
<wgt id='1060'> +1.4987000e+02 </wgt>
<wgt id='1061'> +1.5898000e+02 </wgt>
<wgt id='1062'> +1.5087000e+02 </wgt>
<wgt id='1063'> +1.5124000e+02 </wgt>
<wgt id='1064'> +1.5414000e+02 </wgt>
<wgt id='1065'> +1.5162000e+02 </wgt>
<wgt id='1066'> +1.4567000e+02 </wgt>
<wgt id='1067'> +1.5137000e+02 </wgt>
<wgt id='1068'> +1.5207000e+02 </wgt>
<wgt id='1069'> +1.5514000e+02 </wgt>
<wgt id='1070'> +1.5214000e+02 </wgt>
<wgt id='1071'> +1.4736000e+02 </wgt>
<wgt id='1072'> +1.4762000e+02 </wgt>
<wgt id='1073'> +1.4849000e+02 </wgt>
<wgt id='1074'> +1.5011000e+02 </wgt>
<wgt id='1075'> +1.3962000e+02 </wgt>
<wgt id='1076'> +1.5563000e+02 </wgt>
<wgt id='1077'> +1.5259000e+02 </wgt>
<wgt id='1078'> +1.4106000e+02 </wgt>
<wgt id='1079'> +1.4886000e+02 </wgt>
<wgt id='1080'> +1.5194000e+02 </wgt>
<wgt id='1081'> +1.4770000e+02 </wgt>
<wgt id='1082'> +1.4972000e+02 </wgt>
<wgt id='1083'> +1.5204000e+02 </wgt>
<wgt id='1084'> +1.5056000e+02 </wgt>
<wgt id='1085'> +1.5557000e+02 </wgt>
<wgt id='1086'> +1.5107000e+02 </wgt>
<wgt id='1087'> +1.5243000e+02 </wgt>
<wgt id='1088'> +1.4991000e+02 </wgt>
<wgt id='1089'> +1.5191000e+02 </wgt>
<wgt id='1090'> +1.5143000e+02 </wgt>
<wgt id='1091'> +1.5375000e+02 </wgt>
<wgt id='1092'> +1.5162000e+02 </wgt>
<wgt id='1093'> +1.5132000e+02 </wgt>
<wgt id='1094'> +1.4954000e+02 </wgt>
<wgt id='1095'> +1.5282000e+02 </wgt>
<wgt id='1096'> +1.5320000e+02 </wgt>
<wgt id='1097'> +1.5214000e+02 </wgt>
<wgt id='1098'> +1.5107000e+02 </wgt>
<wgt id='1099'> +1.5185000e+02 </wgt>
<wgt id='1100'> +1.5386000e+02 </wgt>
<wgt id='1101'> +1.5369000e+02 </wgt>
<wgt id='1102'> +1.5777000e+02 </wgt>
<wgt id='1103'> +1.4865000e+02 </wgt>
<wgt id='1104'> +1.5378000e+02 </wgt>
<wgt id='1105'> +1.5146096e+02 </wgt>
<wgt id='1106'> +6.0449072e+01 </wgt>
<wgt id='1107'> +9.7763765e+01 </wgt>
<wgt id='1108'> +7.7495235e+01 </wgt>
<wgt id='1109'> +6.1857722e+01 </wgt>
<wgt id='1110'> +1.0004196e+02 </wgt>
<wgt id='1111'> +7.2936239e+01 </wgt>
<wgt id='1112'> +5.8218671e+01 </wgt>
<wgt id='1113'> +9.4156558e+01 </wgt>
<wgt id='1114'> +7.7452915e+01 </wgt>
<wgt id='1115'> +8.0061243e+01 </wgt>
<wgt id='1116'> +7.5519691e+01 </wgt>
<wgt id='1117'> +7.7018744e+01 </wgt>
<wgt id='1118'> +7.7440632e+01 </wgt>
<wgt id='1119'> +7.7578350e+01 </wgt>
<wgt id='1120'> +8.0276644e+01 </wgt>
<wgt id='1121'> +7.6909631e+01 </wgt>
<wgt id='1122'> +7.6303256e+01 </wgt>
<wgt id='1123'> +7.5454000e+01 </wgt>
<wgt id='1124'> +7.8443277e+01 </wgt>
<wgt id='1125'> +7.8869000e+01 </wgt>
<wgt id='1126'> +7.7325991e+01 </wgt>
<wgt id='1127'> +7.7062191e+01 </wgt>
<wgt id='1128'> +7.8515254e+01 </wgt>
<wgt id='1129'> +7.5439354e+01 </wgt>
<wgt id='1130'> +7.6870962e+01 </wgt>
<wgt id='1131'> +7.9224937e+01 </wgt>
<wgt id='1132'> +7.7393056e+01 </wgt>
<wgt id='1133'> +7.5471553e+01 </wgt>
<wgt id='1134'> +7.5254776e+01 </wgt>
<wgt id='1135'> +7.4903603e+01 </wgt>
<wgt id='1136'> +7.5617981e+01 </wgt>
<wgt id='1137'> +7.5982578e+01 </wgt>
<wgt id='1138'> +7.6790661e+01 </wgt>
<wgt id='1139'> +7.5183438e+01 </wgt>
<wgt id='1140'> +7.7432536e+01 </wgt>
<wgt id='1141'> +7.7562282e+01 </wgt>
<wgt id='1142'> +7.7289588e+01 </wgt>
<wgt id='1143'> +7.7950408e+01 </wgt>
<wgt id='1144'> +7.8813184e+01 </wgt>
<wgt id='1145'> +7.8549084e+01 </wgt>
<wgt id='1146'> +7.8598567e+01 </wgt>
<wgt id='1147'> +7.6992183e+01 </wgt>
<wgt id='1148'> +7.7593773e+01 </wgt>
<wgt id='1149'> +7.8902026e+01 </wgt>
<wgt id='1150'> +7.7649855e+01 </wgt>
<wgt id='1151'> +7.6505605e+01 </wgt>
<wgt id='1152'> +7.6995909e+01 </wgt>
<wgt id='1153'> +7.7039050e+01 </wgt>
<wgt id='1154'> +7.7694550e+01 </wgt>
<wgt id='1155'> +7.8123170e+01 </wgt>
<wgt id='1156'> +7.8671152e+01 </wgt>
<wgt id='1157'> +7.8786360e+01 </wgt>
<wgt id='1158'> +7.8708381e+01 </wgt>
<wgt id='1159'> +7.7080751e+01 </wgt>
<wgt id='1160'> +7.8441891e+01 </wgt>
<wgt id='1161'> +7.8197303e+01 </wgt>
<wgt id='1162'> +7.8344973e+01 </wgt>
<wgt id='1163'> +7.7804297e+01 </wgt>
<wgt id='1164'> +7.9223351e+01 </wgt>
<wgt id='1165'> +7.7296034e+01 </wgt>
<wgt id='1166'> +7.5736957e+01 </wgt>
<wgt id='1167'> +7.7729404e+01 </wgt>
<wgt id='1168'> +7.7159880e+01 </wgt>
<wgt id='1169'> +7.8013268e+01 </wgt>
<wgt id='1170'> +7.7640876e+01 </wgt>
<wgt id='1171'> +7.7556760e+01 </wgt>
<wgt id='1172'> +7.5859916e+01 </wgt>
<wgt id='1173'> +7.7405869e+01 </wgt>
<wgt id='1174'> +7.7841080e+01 </wgt>
<wgt id='1175'> +7.7859456e+01 </wgt>
<wgt id='1176'> +7.6997910e+01 </wgt>
<wgt id='1177'> +7.7599622e+01 </wgt>
<wgt id='1178'> +7.7714355e+01 </wgt>
<wgt id='1179'> +7.6928579e+01 </wgt>
<wgt id='1180'> +7.8760890e+01 </wgt>
<wgt id='1181'> +7.7943261e+01 </wgt>
<wgt id='1182'> +7.7269794e+01 </wgt>
<wgt id='1183'> +7.7197081e+01 </wgt>
<wgt id='1184'> +7.6455501e+01 </wgt>
<wgt id='1185'> +7.6591670e+01 </wgt>
<wgt id='1186'> +7.6224188e+01 </wgt>
<wgt id='1187'> +7.5742569e+01 </wgt>
<wgt id='1188'> +7.6101534e+01 </wgt>
<wgt id='1189'> +7.8077528e+01 </wgt>
<wgt id='1190'> +7.9809069e+01 </wgt>
<wgt id='1191'> +7.5979459e+01 </wgt>
<wgt id='1192'> +7.6404386e+01 </wgt>
<wgt id='1193'> +7.6687356e+01 </wgt>
<wgt id='1194'> +8.0758925e+01 </wgt>
<wgt id='1195'> +7.7021455e+01 </wgt>
<wgt id='1196'> +7.6870962e+01 </wgt>
<wgt id='1197'> +7.8390060e+01 </wgt>
<wgt id='1198'> +7.6859201e+01 </wgt>
<wgt id='1199'> +7.6116096e+01 </wgt>
<wgt id='1200'> +7.9245142e+01 </wgt>
<wgt id='1201'> +7.7484443e+01 </wgt>
<wgt id='1202'> +8.1060752e+01 </wgt>
<wgt id='1203'> +7.7084997e+01 </wgt>
<wgt id='1204'> +7.8307294e+01 </wgt>
<wgt id='1205'> +7.6719396e+01 </wgt>
<wgt id='1206'> +7.7598887e+01 </wgt>
<wgt id='1207'> +7.7268225e+01 </wgt>
<wgt id='1208'> +7.8701165e+01 </wgt>
<wgt id='1209'> +7.7325121e+01 </wgt>
<wgt id='1210'> +7.6264774e+01 </wgt>
<wgt id='1211'> +7.9331794e+01 </wgt>
<wgt id='1212'> +7.8354573e+01 </wgt>
<wgt id='1213'> +7.6538103e+01 </wgt>
<wgt id='1214'> +7.5637774e+01 </wgt>
<wgt id='1215'> +7.6948049e+01 </wgt>
<wgt id='1216'> +7.7405133e+01 </wgt>
<wgt id='1217'> +7.7349642e+01 </wgt>
<wgt id='1218'> +7.7464589e+01 </wgt>
<wgt id='1219'> +7.7318580e+01 </wgt>
<wgt id='1220'> +7.7902626e+01 </wgt>
<wgt id='1221'> +7.7341132e+01 </wgt>
<wgt id='1222'> +7.7208702e+01 </wgt>
<wgt id='1223'> +7.7395792e+01 </wgt>
<wgt id='1224'> +7.7241894e+01 </wgt>
<wgt id='1225'> +7.7500340e+01 </wgt>
<wgt id='1226'> +7.7037120e+01 </wgt>
<wgt id='1227'> +7.7277661e+01 </wgt>
<wgt id='1228'> +7.7439573e+01 </wgt>
<wgt id='1229'> +7.7592759e+01 </wgt>
<wgt id='1230'> +7.7498302e+01 </wgt>
<wgt id='1231'> +7.7038478e+01 </wgt>
<wgt id='1232'> +7.7428587e+01 </wgt>
<wgt id='1233'> +7.7220980e+01 </wgt>
<wgt id='1234'> +7.7549631e+01 </wgt>
<wgt id='1235'> +7.7677227e+01 </wgt>
<wgt id='1236'> +7.7306566e+01 </wgt>
<wgt id='1237'> +7.7686841e+01 </wgt>
<wgt id='1238'> +7.7490093e+01 </wgt>
<wgt id='1239'> +7.7464460e+01 </wgt>
<wgt id='1240'> +7.7396003e+01 </wgt>
<wgt id='1241'> +7.7279506e+01 </wgt>
<wgt id='1242'> +7.7349079e+01 </wgt>
<wgt id='1243'> +7.7611620e+01 </wgt>
<wgt id='1244'> +7.7109379e+01 </wgt>
<wgt id='1245'> +7.7489547e+01 </wgt>
<wgt id='1246'> +7.7920663e+01 </wgt>
<wgt id='1247'> +7.7553294e+01 </wgt>
<wgt id='1248'> +7.7373552e+01 </wgt>
<wgt id='1249'> +7.7554199e+01 </wgt>
<wgt id='1250'> +7.7669170e+01 </wgt>
<wgt id='1251'> +7.7697132e+01 </wgt>
<wgt id='1252'> +7.7449346e+01 </wgt>
<wgt id='1253'> +7.7323250e+01 </wgt>
<wgt id='1254'> +7.7464875e+01 </wgt>
<wgt id='1255'> +7.7255671e+01 </wgt>
<wgt id='1256'> +7.7228172e+01 </wgt>
<wgt id='1257'> +7.7389049e+01 </wgt>
<wgt id='1258'> +7.7359931e+01 </wgt>
<wgt id='1259'> +7.7259133e+01 </wgt>
<wgt id='1260'> +7.7386942e+01 </wgt>
<wgt id='1261'> +7.7565317e+01 </wgt>
<wgt id='1262'> +7.7450239e+01 </wgt>
<wgt id='1263'> +7.7378189e+01 </wgt>
<wgt id='1264'> +7.7325939e+01 </wgt>
<wgt id='1265'> +7.7326576e+01 </wgt>
<wgt id='1266'> +7.7399482e+01 </wgt>
<wgt id='1267'> +7.7542391e+01 </wgt>
<wgt id='1268'> +7.7306531e+01 </wgt>
<wgt id='1269'> +7.7437208e+01 </wgt>
<wgt id='1270'> +7.7419196e+01 </wgt>
<wgt id='1271'> +7.7258478e+01 </wgt>
<wgt id='1272'> +7.7354652e+01 </wgt>
<wgt id='1273'> +7.7453897e+01 </wgt>
<wgt id='1274'> +7.7445411e+01 </wgt>
<wgt id='1275'> +7.7426714e+01 </wgt>
<wgt id='1276'> +7.7373504e+01 </wgt>
<wgt id='1277'> +7.7399425e+01 </wgt>
<wgt id='1278'> +7.7411666e+01 </wgt>
<wgt id='1279'> +7.7441185e+01 </wgt>
<wgt id='1280'> +7.7315068e+01 </wgt>
<wgt id='1281'> +7.7326001e+01 </wgt>
<wgt id='1282'> +7.7468946e+01 </wgt>
<wgt id='1283'> +7.7359128e+01 </wgt>
<wgt id='1284'> +7.7401807e+01 </wgt>
<wgt id='1285'> +7.7454552e+01 </wgt>
<wgt id='1286'> +7.7401471e+01 </wgt>
<wgt id='1287'> +7.7408262e+01 </wgt>
<wgt id='1288'> +7.7428788e+01 </wgt>
<wgt id='1289'> +7.7405285e+01 </wgt>
<wgt id='1290'> +7.7438974e+01 </wgt>
<wgt id='1291'> +7.7383611e+01 </wgt>
<wgt id='1292'> +7.7375987e+01 </wgt>
<wgt id='1293'> +7.7427737e+01 </wgt>
<wgt id='1294'> +7.7400662e+01 </wgt>
<wgt id='1295'> +7.7404003e+01 </wgt>
<wgt id='1296'> +7.7390672e+01 </wgt>
<wgt id='1297'> +7.7419141e+01 </wgt>
<wgt id='1298'> +7.7416691e+01 </wgt>
<wgt id='1299'> +7.7401860e+01 </wgt>
<wgt id='1300'> +7.7380313e+01 </wgt>
<wgt id='1301'> +7.7400571e+01 </wgt>
<wgt id='1302'> +7.7393594e+01 </wgt>
<wgt id='1303'> +7.7393376e+01 </wgt>
<wgt id='1304'> +7.7407264e+01 </wgt>
<wgt id='1305'> +7.7428664e+01 </wgt>
<wgt id='1306'> +7.7388455e+01 </wgt>
<wgt id='1307'> +7.7424295e+01 </wgt>
<wgt id='1308'> +7.7403656e+01 </wgt>
<wgt id='1309'> +7.7407382e+01 </wgt>
<wgt id='1310'> +7.7434414e+01 </wgt>
<wgt id='1311'> +7.7417439e+01 </wgt>
<wgt id='1312'> +7.7383525e+01 </wgt>
<wgt id='1313'> +7.7409000e+01 </wgt>
<wgt id='1314'> +7.7402148e+01 </wgt>
<wgt id='1315'> +7.7421485e+01 </wgt>
<wgt id='1316'> +7.7388884e+01 </wgt>
<wgt id='1317'> +7.4461522e+01 </wgt>
<wgt id='1318'> +8.0372904e+01 </wgt>
<wgt id='1319'> +7.8432196e+01 </wgt>
<wgt id='1320'> +7.4116038e+01 </wgt>
<wgt id='1321'> +7.4077065e+01 </wgt>
<wgt id='1322'> +7.4587353e+01 </wgt>
<wgt id='1323'> +7.3446024e+01 </wgt>
<wgt id='1324'> +7.4261968e+01 </wgt>
<wgt id='1325'> +7.4177591e+01 </wgt>
<wgt id='1326'> +7.4119181e+01 </wgt>
<wgt id='1327'> +7.4287284e+01 </wgt>
<wgt id='1328'> +7.4747291e+01 </wgt>
<wgt id='1329'> +7.3744201e+01 </wgt>
<wgt id='1330'> +7.4292257e+01 </wgt>
<wgt id='1331'> +7.4674431e+01 </wgt>
<wgt id='1332'> +7.3686202e+01 </wgt>
<wgt id='1333'> +7.3329295e+01 </wgt>
<wgt id='1334'> +7.4374556e+01 </wgt>
<wgt id='1335'> +7.6099197e+01 </wgt>
<wgt id='1336'> +7.2329909e+01 </wgt>
<wgt id='1337'> +7.3795263e+01 </wgt>
<wgt id='1338'> +7.4472199e+01 </wgt>
<wgt id='1339'> +7.4754034e+01 </wgt>
<wgt id='1340'> +7.3379196e+01 </wgt>
<wgt id='1341'> +7.4462277e+01 </wgt>
<wgt id='1342'> +7.3413779e+01 </wgt>
<wgt id='1343'> +7.4121811e+01 </wgt>
<wgt id='1344'> +7.4003442e+01 </wgt>
<wgt id='1345'> +7.5538756e+01 </wgt>
<wgt id='1346'> +7.2890982e+01 </wgt>
<wgt id='1347'> +7.4127808e+01 </wgt>
<wgt id='1348'> +7.4057030e+01 </wgt>
<wgt id='1349'> +7.3723696e+01 </wgt>
<wgt id='1350'> +7.4248567e+01 </wgt>
<wgt id='1351'> +7.4289789e+01 </wgt>
<wgt id='1352'> +7.3890193e+01 </wgt>
<wgt id='1353'> +7.3802346e+01 </wgt>
<wgt id='1354'> +7.4795472e+01 </wgt>
<wgt id='1355'> +7.2940507e+01 </wgt>
<wgt id='1356'> +7.5352124e+01 </wgt>
<wgt id='1357'> +7.4113141e+01 </wgt>
<wgt id='1358'> +7.3877609e+01 </wgt>
<wgt id='1359'> +7.3624731e+01 </wgt>
<wgt id='1360'> +7.4310771e+01 </wgt>
<wgt id='1361'> +7.4511192e+01 </wgt>
<wgt id='1362'> +7.3723055e+01 </wgt>
<wgt id='1363'> +7.4056301e+01 </wgt>
<wgt id='1364'> +7.4438845e+01 </wgt>
<wgt id='1365'> +7.3891020e+01 </wgt>
<wgt id='1366'> +7.4430168e+01 </wgt>
<wgt id='1367'> +7.3989980e+01 </wgt>
<wgt id='1368'> +7.3041913e+01 </wgt>
<wgt id='1369'> +7.3154225e+01 </wgt>
<wgt id='1370'> +7.4277121e+01 </wgt>
<wgt id='1371'> +7.3488906e+01 </wgt>
<wgt id='1372'> +7.3672516e+01 </wgt>
<wgt id='1373'> +7.2522701e+01 </wgt>
<wgt id='1374'> +7.4354932e+01 </wgt>
<wgt id='1375'> +7.2604740e+01 </wgt>
<wgt id='1376'> +7.5967713e+01 </wgt>
<wgt id='1377'> +7.1016581e+01 </wgt>
<wgt id='1378'> +7.7369878e+01 </wgt>
<wgt id='1379'> +7.7512519e+01 </wgt>
<wgt id='1380'> +7.4011338e+01 </wgt>
<wgt id='1381'> +8.1231200e+01 </wgt>
<wgt id='1382'> +6.7802979e+01 </wgt>
<wgt id='1383'> +7.3846204e+01 </wgt>
<wgt id='1384'> +7.6138342e+01 </wgt>
<wgt id='1385'> +8.9982649e+01 </wgt>
<wgt id='1386'> +8.9881967e+01 </wgt>
<wgt id='1387'> +9.0092144e+01 </wgt>
<wgt id='1388'> +8.9638562e+01 </wgt>
<wgt id='1389'> +9.0573146e+01 </wgt>
<wgt id='1390'> +9.0036026e+01 </wgt>
<wgt id='1391'> +8.9916441e+01 </wgt>
<wgt id='1392'> +8.9350889e+01 </wgt>
<wgt id='1393'> +9.0429340e+01 </wgt>
<wgt id='1394'> +8.9962739e+01 </wgt>
<wgt id='1395'> +9.0005348e+01 </wgt>
<wgt id='1396'> +8.9677629e+01 </wgt>
<wgt id='1397'> +9.0135962e+01 </wgt>
<wgt id='1398'> +9.0387689e+01 </wgt>
<wgt id='1399'> +8.9666237e+01 </wgt>
<wgt id='1400'> +8.9655873e+01 </wgt>
<wgt id='1401'> +9.0222323e+01 </wgt>
<wgt id='1402'> +9.0085957e+01 </wgt>
<wgt id='1403'> +8.9932591e+01 </wgt>
<wgt id='1404'> +9.0532488e+01 </wgt>
<wgt id='1405'> +8.9709281e+01 </wgt>
<wgt id='1406'> +8.9553581e+01 </wgt>
<wgt id='1407'> +9.0732283e+01 </wgt>
<wgt id='1408'> +8.9685790e+01 </wgt>
<wgt id='1409'> +9.0576784e+01 </wgt>
<wgt id='1410'> +8.9976321e+01 </wgt>
<wgt id='1411'> +8.9956575e+01 </wgt>
<wgt id='1412'> +9.0056623e+01 </wgt>
<wgt id='1413'> +8.9790550e+01 </wgt>
<wgt id='1414'> +9.0375201e+01 </wgt>
<wgt id='1415'> +8.9704009e+01 </wgt>
<wgt id='1416'> +9.0098862e+01 </wgt>
<wgt id='1417'> +8.9898343e+01 </wgt>
<wgt id='1418'> +9.0165633e+01 </wgt>
<wgt id='1419'> +8.9547377e+01 </wgt>
<wgt id='1420'> +8.9740447e+01 </wgt>
<wgt id='1421'> +8.9867635e+01 </wgt>
<wgt id='1422'> +9.0165068e+01 </wgt>
<wgt id='1423'> +8.9785658e+01 </wgt>
<wgt id='1424'> +9.0343010e+01 </wgt>
<wgt id='1425'> +8.9324928e+01 </wgt>
<wgt id='1426'> +9.0558207e+01 </wgt>
<wgt id='1427'> +9.0137586e+01 </wgt>
<wgt id='1428'> +8.9783279e+01 </wgt>
<wgt id='1429'> +8.9903068e+01 </wgt>
<wgt id='1430'> +9.0315565e+01 </wgt>
<wgt id='1431'> +9.0505181e+01 </wgt>
<wgt id='1432'> +9.0330188e+01 </wgt>
<wgt id='1433'> +9.0644724e+01 </wgt>
<wgt id='1434'> +8.9966238e+01 </wgt>
<wgt id='1435'> +9.0025015e+01 </wgt>
<wgt id='1436'> +6.3664117e+01 </wgt>
<wgt id='1437'> +6.3718183e+01 </wgt>
<wgt id='1438'> +6.3580321e+01 </wgt>
<wgt id='1439'> +6.3661979e+01 </wgt>
<wgt id='1440'> +6.3797232e+01 </wgt>
<wgt id='1441'> +6.3871775e+01 </wgt>
<wgt id='1442'> +6.3539435e+01 </wgt>
<wgt id='1443'> +6.3707774e+01 </wgt>
<wgt id='1444'> +6.3225639e+01 </wgt>
<wgt id='1445'> +6.3184630e+01 </wgt>
<wgt id='1446'> +6.3763536e+01 </wgt>
<wgt id='1447'> +6.3670904e+01 </wgt>
<wgt id='1448'> +6.3381710e+01 </wgt>
<wgt id='1449'> +6.3478722e+01 </wgt>
<wgt id='1450'> +6.3664928e+01 </wgt>
<wgt id='1451'> +6.3699444e+01 </wgt>
<wgt id='1452'> +6.3430096e+01 </wgt>
<wgt id='1453'> +6.3808782e+01 </wgt>
<wgt id='1454'> +6.3876703e+01 </wgt>
<wgt id='1455'> +6.3499978e+01 </wgt>
<wgt id='1456'> +6.3792724e+01 </wgt>
<wgt id='1457'> +6.4173709e+01 </wgt>
<wgt id='1458'> +6.4299187e+01 </wgt>
<wgt id='1459'> +6.4523866e+01 </wgt>
<wgt id='1460'> +6.3451674e+01 </wgt>
<wgt id='1461'> +6.4086309e+01 </wgt>
<wgt id='1462'> +6.3367091e+01 </wgt>
<wgt id='1463'> +6.3612661e+01 </wgt>
<wgt id='1464'> +6.2697835e+01 </wgt>
<wgt id='1465'> +7.6778811e+01 </wgt>
<wgt id='1466'> +7.4677472e+01 </wgt>
<wgt id='1467'> +7.4244161e+01 </wgt>
<wgt id='1468'> +7.4652859e+01 </wgt>
<wgt id='1469'> +7.5620216e+01 </wgt>
<wgt id='1470'> +7.4280757e+01 </wgt>
<wgt id='1471'> +7.4652309e+01 </wgt>
<wgt id='1472'> +7.4550217e+01 </wgt>
<wgt id='1473'> +7.4441931e+01 </wgt>
<wgt id='1474'> +7.3915589e+01 </wgt>
<wgt id='1475'> +7.4810153e+01 </wgt>
<wgt id='1476'> +7.5095153e+01 </wgt>
<wgt id='1477'> +7.4139564e+01 </wgt>
<wgt id='1478'> +7.4586741e+01 </wgt>
<wgt id='1479'> +7.4960653e+01 </wgt>
<wgt id='1480'> +7.3933670e+01 </wgt>
<wgt id='1481'> +7.4945894e+01 </wgt>
<wgt id='1482'> +7.4412702e+01 </wgt>
<wgt id='1483'> +7.4462835e+01 </wgt>
<wgt id='1484'> +7.4598558e+01 </wgt>
<wgt id='1485'> +7.4097962e+01 </wgt>
<wgt id='1486'> +7.4602900e+01 </wgt>
<wgt id='1487'> +7.4293557e+01 </wgt>
<wgt id='1488'> +7.4643184e+01 </wgt>
<wgt id='1489'> +7.4390321e+01 </wgt>
<wgt id='1490'> +7.4839996e+01 </wgt>
<wgt id='1491'> +7.4780387e+01 </wgt>
<wgt id='1492'> +7.4482743e+01 </wgt>
<wgt id='1493'> +7.4739527e+01 </wgt>
<wgt id='1494'> +7.4464942e+01 </wgt>
<wgt id='1495'> +7.4633927e+01 </wgt>
<wgt id='1496'> +7.4841657e+01 </wgt>
<wgt id='1497'> +7.4622018e+01 </wgt>
<wgt id='1498'> +7.4496401e+01 </wgt>
<wgt id='1499'> +7.4564534e+01 </wgt>
<wgt id='1500'> +7.4772530e+01 </wgt>
<wgt id='1501'> +7.4883411e+01 </wgt>
<wgt id='1502'> +7.4577704e+01 </wgt>
<wgt id='1503'> +7.4729037e+01 </wgt>
<wgt id='1504'> +7.4648451e+01 </wgt>
<wgt id='1505'> +7.4686068e+01 </wgt>
<wgt id='1506'> +7.4602481e+01 </wgt>
<wgt id='1507'> +7.4641781e+01 </wgt>
<wgt id='1508'> +7.4730704e+01 </wgt>
<wgt id='1509'> +7.4637340e+01 </wgt>
<wgt id='1510'> +7.4703394e+01 </wgt>
<wgt id='1511'> +7.4747498e+01 </wgt>
<wgt id='1512'> +7.4746515e+01 </wgt>
<wgt id='1513'> +7.4688144e+01 </wgt>
<wgt id='1514'> +7.4687183e+01 </wgt>
<wgt id='1515'> +7.4698774e+01 </wgt>
<wgt id='1516'> +7.4643885e+01 </wgt>
<wgt id='1517'> +7.4634822e+01 </wgt>
<wgt id='1518'> +7.4612934e+01 </wgt>
<wgt id='1519'> +7.4566676e+01 </wgt>
<wgt id='1520'> +7.4686834e+01 </wgt>
<wgt id='1521'> +7.4627018e+01 </wgt>
<wgt id='1522'> +7.4637223e+01 </wgt>
<wgt id='1523'> +7.4683870e+01 </wgt>
<wgt id='1524'> +7.4719645e+01 </wgt>
<wgt id='1525'> +7.4663868e+01 </wgt>
<wgt id='1526'> +7.4605767e+01 </wgt>
<wgt id='1527'> +7.4705849e+01 </wgt>
<wgt id='1528'> +7.4604084e+01 </wgt>
<wgt id='1529'> +7.4666054e+01 </wgt>
<wgt id='1530'> +7.4638121e+01 </wgt>
<wgt id='1531'> +7.4688927e+01 </wgt>
<wgt id='1532'> +7.4696608e+01 </wgt>
<wgt id='1533'> +7.4692423e+01 </wgt>
<wgt id='1534'> +7.4703090e+01 </wgt>
<wgt id='1535'> +7.4698263e+01 </wgt>
<wgt id='1536'> +7.4648163e+01 </wgt>
<wgt id='1537'> +7.4631583e+01 </wgt>
<wgt id='1538'> +7.4662094e+01 </wgt>
<wgt id='1539'> +7.4668599e+01 </wgt>
<wgt id='1540'> +7.4617813e+01 </wgt>
<wgt id='1541'> +7.4654060e+01 </wgt>
<wgt id='1542'> +7.4692917e+01 </wgt>
<wgt id='1543'> +7.4634252e+01 </wgt>
<wgt id='1544'> +7.4667127e+01 </wgt>
<wgt id='1545'> +7.4715894e+01 </wgt>
<wgt id='1546'> +7.4669694e+01 </wgt>
<wgt id='1547'> +7.4714436e+01 </wgt>
<wgt id='1548'> +7.4652923e+01 </wgt>
<wgt id='1549'> +7.4684519e+01 </wgt>
<wgt id='1550'> +7.4712732e+01 </wgt>
<wgt id='1551'> +7.4686790e+01 </wgt>
<wgt id='1552'> +7.4723260e+01 </wgt>
<wgt id='1553'> +7.4697170e+01 </wgt>
<wgt id='1554'> +7.4684415e+01 </wgt>
<wgt id='1555'> +7.4678869e+01 </wgt>
<wgt id='1556'> +7.4689563e+01 </wgt>
<wgt id='1557'> +7.4665520e+01 </wgt>
<wgt id='1558'> +7.4671010e+01 </wgt>
<wgt id='1559'> +7.4676070e+01 </wgt>
<wgt id='1560'> +7.4666127e+01 </wgt>
<wgt id='1561'> +7.4698945e+01 </wgt>
<wgt id='1562'> +7.4677343e+01 </wgt>
<wgt id='1563'> +7.4683933e+01 </wgt>
<wgt id='1564'> +7.4695285e+01 </wgt>
<wgt id='1565'> +7.4668241e+01 </wgt>
<wgt id='1566'> +7.4678787e+01 </wgt>
<wgt id='1567'> +7.2566040e+01 </wgt>
<wgt id='1568'> +7.6817952e+01 </wgt>
<wgt id='1569'> +7.6902428e+01 </wgt>
<wgt id='1570'> +7.6997775e+01 </wgt>
<wgt id='1571'> +7.6773157e+01 </wgt>
<wgt id='1572'> +7.7069076e+01 </wgt>
<wgt id='1573'> +7.7547680e+01 </wgt>
<wgt id='1574'> +7.7719810e+01 </wgt>
<wgt id='1575'> +7.7272246e+01 </wgt>
<wgt id='1576'> +7.6695097e+01 </wgt>
<wgt id='1577'> +7.6848893e+01 </wgt>
<wgt id='1578'> +7.7132415e+01 </wgt>
<wgt id='1579'> +7.6594034e+01 </wgt>
<wgt id='1580'> +7.7725824e+01 </wgt>
<wgt id='1581'> +7.7290452e+01 </wgt>
<wgt id='1582'> +7.7065135e+01 </wgt>
<wgt id='1583'> +7.6796176e+01 </wgt>
<wgt id='1584'> +7.6668901e+01 </wgt>
<wgt id='1585'> +7.7320456e+01 </wgt>
<wgt id='1586'> +7.6499932e+01 </wgt>
<wgt id='1587'> +7.7080243e+01 </wgt>
<wgt id='1588'> +7.6542410e+01 </wgt>
<wgt id='1589'> +7.7443760e+01 </wgt>
<wgt id='1590'> +7.6990188e+01 </wgt>
<wgt id='1591'> +7.7066669e+01 </wgt>
<wgt id='1592'> +7.6547957e+01 </wgt>
<wgt id='1593'> +7.6759599e+01 </wgt>
<wgt id='1594'> +7.7129005e+01 </wgt>
<wgt id='1595'> +7.6884840e+01 </wgt>
<wgt id='1596'> +7.6817005e+01 </wgt>
<wgt id='1597'> +7.7178537e+01 </wgt>
<wgt id='1598'> +7.7123817e+01 </wgt>
<wgt id='1599'> +7.7085569e+01 </wgt>
<wgt id='1600'> +7.6923696e+01 </wgt>
<wgt id='1601'> +7.6994201e+01 </wgt>
<wgt id='1602'> +7.6895713e+01 </wgt>
<wgt id='1603'> +7.6937253e+01 </wgt>
<wgt id='1604'> +7.7092820e+01 </wgt>
<wgt id='1605'> +7.7025058e+01 </wgt>
<wgt id='1606'> +7.7012687e+01 </wgt>
<wgt id='1607'> +7.6891820e+01 </wgt>
<wgt id='1608'> +7.7020722e+01 </wgt>
<wgt id='1609'> +7.6766921e+01 </wgt>
<wgt id='1610'> +7.6776725e+01 </wgt>
<wgt id='1611'> +7.6841147e+01 </wgt>
<wgt id='1612'> +7.6861348e+01 </wgt>
<wgt id='1613'> +7.6931308e+01 </wgt>
<wgt id='1614'> +7.6999177e+01 </wgt>
<wgt id='1615'> +7.6878523e+01 </wgt>
<wgt id='1616'> +7.6935199e+01 </wgt>
<wgt id='1617'> +7.6896858e+01 </wgt>
<wgt id='1618'> +7.6871379e+01 </wgt>
<wgt id='1619'> +7.6942919e+01 </wgt>
<wgt id='1620'> +7.6980122e+01 </wgt>
<wgt id='1621'> +7.6949421e+01 </wgt>
<wgt id='1622'> +7.6900554e+01 </wgt>
<wgt id='1623'> +7.6880963e+01 </wgt>
<wgt id='1624'> +7.6834111e+01 </wgt>
<wgt id='1625'> +7.6928832e+01 </wgt>
<wgt id='1626'> +7.6915848e+01 </wgt>
<wgt id='1627'> +7.6798900e+01 </wgt>
<wgt id='1628'> +7.6869343e+01 </wgt>
<wgt id='1629'> +7.6889862e+01 </wgt>
<wgt id='1630'> +7.6905510e+01 </wgt>
<wgt id='1631'> +7.6888714e+01 </wgt>
<wgt id='1632'> +7.6890055e+01 </wgt>
<wgt id='1633'> +7.6882935e+01 </wgt>
<wgt id='1634'> +7.6929559e+01 </wgt>
<wgt id='1635'> +7.6894539e+01 </wgt>
<wgt id='1636'> +7.6926270e+01 </wgt>
<wgt id='1637'> +7.6927289e+01 </wgt>
<wgt id='1638'> +7.6947826e+01 </wgt>
<wgt id='1639'> +7.6895099e+01 </wgt>
<wgt id='1640'> +7.6952822e+01 </wgt>
<wgt id='1641'> +7.6927181e+01 </wgt>
<wgt id='1642'> +7.6893084e+01 </wgt>
<wgt id='1643'> +7.6906940e+01 </wgt>
<wgt id='1644'> +7.6912387e+01 </wgt>
<wgt id='1645'> +7.6879114e+01 </wgt>
<wgt id='1646'> +7.6901432e+01 </wgt>
<wgt id='1647'> +7.6898252e+01 </wgt>
<wgt id='1648'> +7.6881678e+01 </wgt>
<wgt id='1649'> +7.6963333e+01 </wgt>
<wgt id='1650'> +7.6892456e+01 </wgt>
<wgt id='1651'> +7.6910505e+01 </wgt>
<wgt id='1652'> +7.6882942e+01 </wgt>
<wgt id='1653'> +7.6899980e+01 </wgt>
<wgt id='1654'> +7.6873056e+01 </wgt>
<wgt id='1655'> +7.6925638e+01 </wgt>
<wgt id='1656'> +7.6854900e+01 </wgt>
<wgt id='1657'> +7.6872718e+01 </wgt>
<wgt id='1658'> +7.6886281e+01 </wgt>
<wgt id='1659'> +7.6899170e+01 </wgt>
<wgt id='1660'> +7.6910031e+01 </wgt>
<wgt id='1661'> +7.6905710e+01 </wgt>
<wgt id='1662'> +7.6877877e+01 </wgt>
<wgt id='1663'> +7.6899135e+01 </wgt>
<wgt id='1664'> +7.6917848e+01 </wgt>
<wgt id='1665'> +7.6883134e+01 </wgt>
<wgt id='1666'> +7.6908575e+01 </wgt>
<wgt id='1667'> +7.6906435e+01 </wgt>
<wgt id='1668'> +7.6889204e+01 </wgt>
<wgt id='1669'> +7.6900558e+01 </wgt>
<wgt id='1670'> +7.4757574e+01 </wgt>
<wgt id='1671'> +7.9282644e+01 </wgt>
<wgt id='1672'> +7.4675997e+01 </wgt>
<wgt id='1673'> +7.4788350e+01 </wgt>
<wgt id='1674'> +7.3672526e+01 </wgt>
<wgt id='1675'> +7.4630098e+01 </wgt>
<wgt id='1676'> +7.4449722e+01 </wgt>
<wgt id='1677'> +7.5035068e+01 </wgt>
<wgt id='1678'> +7.4183893e+01 </wgt>
<wgt id='1679'> +7.4730871e+01 </wgt>
<wgt id='1680'> +7.4839573e+01 </wgt>
<wgt id='1681'> +7.4669359e+01 </wgt>
<wgt id='1682'> +7.4796772e+01 </wgt>
<wgt id='1683'> +7.3756706e+01 </wgt>
<wgt id='1684'> +7.4580840e+01 </wgt>
<wgt id='1685'> +7.4714299e+01 </wgt>
<wgt id='1686'> +7.4370860e+01 </wgt>
<wgt id='1687'> +7.4745141e+01 </wgt>
<wgt id='1688'> +7.4574101e+01 </wgt>
<wgt id='1689'> +7.4814055e+01 </wgt>
<wgt id='1690'> +7.4844308e+01 </wgt>
<wgt id='1691'> +7.4447499e+01 </wgt>
<wgt id='1692'> +7.4735435e+01 </wgt>
<wgt id='1693'> +7.4529364e+01 </wgt>
<wgt id='1694'> +7.4518489e+01 </wgt>
<wgt id='1695'> +7.4790248e+01 </wgt>
<wgt id='1696'> +7.4582324e+01 </wgt>
<wgt id='1697'> +7.4590208e+01 </wgt>
<wgt id='1698'> +7.5019382e+01 </wgt>
<wgt id='1699'> +7.4785304e+01 </wgt>
<wgt id='1700'> +7.5527587e+01 </wgt>
<wgt id='1701'> +7.4454173e+01 </wgt>
<wgt id='1702'> +7.4692739e+01 </wgt>
<wgt id='1703'> +7.2566040e+01 </wgt>
<wgt id='1704'> +7.6817952e+01 </wgt>
<wgt id='1705'> +7.6892199e+01 </wgt>
<wgt id='1706'> +7.5592897e+01 </wgt>
<wgt id='1707'> +7.7303054e+01 </wgt>
<wgt id='1708'> +7.6904935e+01 </wgt>
<wgt id='1709'> +7.5816894e+01 </wgt>
<wgt id='1710'> +7.6816851e+01 </wgt>
<wgt id='1711'> +7.6948166e+01 </wgt>
<wgt id='1712'> +7.6842197e+01 </wgt>
<wgt id='1713'> +7.6850539e+01 </wgt>
<wgt id='1714'> +7.6651083e+01 </wgt>
<wgt id='1715'> +7.6639225e+01 </wgt>
<wgt id='1716'> +7.6961722e+01 </wgt>
<wgt id='1717'> +7.6901324e+01 </wgt>
<wgt id='1718'> +7.7055548e+01 </wgt>
<wgt id='1719'> +7.6790599e+01 </wgt>
<wgt id='1720'> +7.6853663e+01 </wgt>
<wgt id='1721'> +7.6872032e+01 </wgt>
<wgt id='1722'> +7.7102922e+01 </wgt>
<wgt id='1723'> +7.6896659e+01 </wgt>
<wgt id='1724'> +7.6821471e+01 </wgt>
<wgt id='1725'> +7.6983126e+01 </wgt>
<wgt id='1726'> +7.6971441e+01 </wgt>
<wgt id='1727'> +7.7329217e+01 </wgt>
<wgt id='1728'> +7.6937164e+01 </wgt>
<wgt id='1729'> +7.6880922e+01 </wgt>
<wgt id='1730'> +7.6911923e+01 </wgt>
<wgt id='1731'> +7.6845764e+01 </wgt>
<wgt id='1732'> +7.7001427e+01 </wgt>
<wgt id='1733'> +7.6942881e+01 </wgt>
<wgt id='1734'> +7.6836291e+01 </wgt>
<wgt id='1735'> +7.7150116e+01 </wgt>
<wgt id='1736'> +7.4757574e+01 </wgt>
<wgt id='1737'> +7.9282644e+01 </wgt>
<wgt id='1738'> +7.4899103e+01 </wgt>
<wgt id='1739'> +7.4922928e+01 </wgt>
<wgt id='1740'> +7.4875596e+01 </wgt>
<wgt id='1741'> +7.4951024e+01 </wgt>
<wgt id='1742'> +7.4847161e+01 </wgt>
<wgt id='1743'> +7.5037743e+01 </wgt>
<wgt id='1744'> +7.4760876e+01 </wgt>
<wgt id='1745'> +7.5030670e+01 </wgt>
<wgt id='1746'> +7.4765958e+01 </wgt>
<wgt id='1747'> +7.4928198e+01 </wgt>
<wgt id='1748'> +7.4871413e+01 </wgt>
<wgt id='1749'> +7.4655376e+01 </wgt>
<wgt id='1750'> +7.5156976e+01 </wgt>
<wgt id='1751'> +7.4773928e+01 </wgt>
<wgt id='1752'> +7.5025032e+01 </wgt>
<wgt id='1753'> +7.5053413e+01 </wgt>
<wgt id='1754'> +7.4698135e+01 </wgt>
<wgt id='1755'> +7.5118341e+01 </wgt>
<wgt id='1756'> +7.4695660e+01 </wgt>
<wgt id='1757'> +7.4904507e+01 </wgt>
<wgt id='1758'> +7.4876547e+01 </wgt>
<wgt id='1759'> +7.5098829e+01 </wgt>
<wgt id='1760'> +7.4648496e+01 </wgt>
<wgt id='1761'> +7.4322248e+01 </wgt>
<wgt id='1762'> +7.5238328e+01 </wgt>
<wgt id='1763'> +7.4535578e+01 </wgt>
<wgt id='1764'> +7.5348437e+01 </wgt>
<wgt id='1765'> +7.5493933e+01 </wgt>
<wgt id='1766'> +7.4359809e+01 </wgt>
<wgt id='1767'> +7.4899103e+01 </wgt>
<wgt id='1768'> +7.5769422e+01 </wgt>
<wgt id='1769'> +7.3748024e+01 </wgt>
<wgt id='1770'> +7.5874078e+01 </wgt>
<wgt id='1771'> +7.4113487e+01 </wgt>
<wgt id='1772'> +7.4847474e+01 </wgt>
<wgt id='1773'> +7.5262682e+01 </wgt>
<wgt id='1774'> +7.4814797e+01 </wgt>
<wgt id='1775'> +7.5017229e+01 </wgt>
<wgt id='1776'> +7.4799022e+01 </wgt>
<wgt id='1777'> +7.5012937e+01 </wgt>
<wgt id='1778'> +7.4602459e+01 </wgt>
<wgt id='1779'> +7.5230492e+01 </wgt>
<wgt id='1780'> +7.5081967e+01 </wgt>
<wgt id='1781'> +7.8474202e+01 </wgt>
<wgt id='1782'> +7.8523416e+01 </wgt>
<wgt id='1783'> +7.8416626e+01 </wgt>
<wgt id='1784'> +7.8432884e+01 </wgt>
<wgt id='1785'> +7.8507046e+01 </wgt>
<wgt id='1786'> +7.8596002e+01 </wgt>
<wgt id='1787'> +7.8344182e+01 </wgt>
<wgt id='1788'> +7.8654869e+01 </wgt>
<wgt id='1789'> +7.8281814e+01 </wgt>
<wgt id='1790'> +7.8344683e+01 </wgt>
<wgt id='1791'> +7.8597517e+01 </wgt>
<wgt id='1792'> +7.8633271e+01 </wgt>
<wgt id='1793'> +7.8308581e+01 </wgt>
<wgt id='1794'> +7.8364389e+01 </wgt>
<wgt id='1795'> +7.8573877e+01 </wgt>
<wgt id='1796'> +7.8471440e+01 </wgt>
<wgt id='1797'> +7.8400886e+01 </wgt>
<wgt id='1798'> +7.8414348e+01 </wgt>
<wgt id='1799'> +7.8519635e+01 </wgt>
<wgt id='1800'> +7.8421731e+01 </wgt>
<wgt id='1801'> +7.8520185e+01 </wgt>
<wgt id='1802'> +7.8417558e+01 </wgt>
<wgt id='1803'> +7.8453900e+01 </wgt>
<wgt id='1804'> +7.8001579e+01 </wgt>
<wgt id='1805'> +7.8948207e+01 </wgt>
<wgt id='1806'> +7.7720837e+01 </wgt>
<wgt id='1807'> +7.9088778e+01 </wgt>
<wgt id='1808'> +7.8204026e+01 </wgt>
<wgt id='1809'> +7.8797072e+01 </wgt>
<wgt id='1810'> +7.8425438e+01 </wgt>
<wgt id='1811'> +7.9391288e+01 </wgt>
<wgt id='1812'> +7.6918021e+01 </wgt>
<wgt id='1813'> +7.9485414e+01 </wgt>
<wgt id='1814'> +7.7619862e+01 </wgt>
<wgt id='1815'> +7.7264515e+01 </wgt>
<wgt id='1816'> +7.8341267e+01 </wgt>
<wgt id='1817'> +7.8293970e+01 </wgt>
<wgt id='1818'> +7.8712257e+01 </wgt>
<wgt id='1819'> +7.8235937e+01 </wgt>
<wgt id='1820'> +7.7223390e+01 </wgt>
<wgt id='1821'> +7.8293502e+01 </wgt>
<wgt id='1822'> +7.9115034e+01 </wgt>
<wgt id='1823'> +7.9064723e+01 </wgt>
<wgt id='1824'> +7.3773101e+01 </wgt>
<wgt id='1825'> +7.3755951e+01 </wgt>
<wgt id='1826'> +7.3738991e+01 </wgt>
<wgt id='1827'> +7.3721698e+01 </wgt>
<wgt id='1828'> +7.3704630e+01 </wgt>
<wgt id='1829'> +7.3687342e+01 </wgt>
<wgt id='1830'> +7.3670200e+01 </wgt>
<wgt id='1831'> +7.3652991e+01 </wgt>
<wgt id='1832'> +7.3635863e+01 </wgt>
<wgt id='1833'> +7.3618622e+01 </wgt>
<wgt id='1834'> +7.3601453e+01 </wgt>
<wgt id='1835'> +7.3584542e+01 </wgt>
<wgt id='1836'> +7.3567243e+01 </wgt>
<wgt id='1837'> +7.3550146e+01 </wgt>
<wgt id='1838'> +7.3532899e+01 </wgt>
<wgt id='1839'> +7.3515795e+01 </wgt>
<wgt id='1840'> +7.3498556e+01 </wgt>
<wgt id='1841'> +7.3481444e+01 </wgt>
<wgt id='1842'> +7.3464205e+01 </wgt>
<wgt id='1843'> +7.3447061e+01 </wgt>
<wgt id='1844'> +7.3430132e+01 </wgt>
<wgt id='1845'> +7.3412901e+01 </wgt>
<wgt id='1846'> +7.3395796e+01 </wgt>
<wgt id='1847'> +7.3378572e+01 </wgt>
<wgt id='1848'> +7.3361488e+01 </wgt>
<wgt id='1849'> +7.3344248e+01 </wgt>
<wgt id='1850'> +7.3327125e+01 </wgt>
<wgt id='1851'> +7.3309865e+01 </wgt>
<wgt id='1852'> +7.3292802e+01 </wgt>
<wgt id='1853'> +7.3275881e+01 </wgt>
<wgt id='1854'> +7.3258651e+01 </wgt>
<wgt id='1855'> +7.6129455e+01 </wgt>
<wgt id='1856'> +7.6203434e+01 </wgt>
<wgt id='1857'> +7.5988267e+01 </wgt>
<wgt id='1858'> +7.6305130e+01 </wgt>
<wgt id='1859'> +7.6767119e+01 </wgt>
<wgt id='1860'> +7.6941249e+01 </wgt>
<wgt id='1861'> +7.6517769e+01 </wgt>
<wgt id='1862'> +7.5938455e+01 </wgt>
<wgt id='1863'> +7.6077181e+01 </wgt>
<wgt id='1864'> +7.6361992e+01 </wgt>
<wgt id='1865'> +7.5826227e+01 </wgt>
<wgt id='1866'> +7.6964845e+01 </wgt>
<wgt id='1867'> +7.6524466e+01 </wgt>
<wgt id='1868'> +7.6311177e+01 </wgt>
<wgt id='1869'> +7.6016787e+01 </wgt>
<wgt id='1870'> +7.5856940e+01 </wgt>
<wgt id='1871'> +7.6563278e+01 </wgt>
<wgt id='1872'> +7.5722200e+01 </wgt>
<wgt id='1873'> +7.6302651e+01 </wgt>
<wgt id='1874'> +7.5788641e+01 </wgt>
<wgt id='1875'> +7.6688445e+01 </wgt>
<wgt id='1876'> +7.6202304e+01 </wgt>
<wgt id='1877'> +7.6289597e+01 </wgt>
<wgt id='1878'> +7.5784243e+01 </wgt>
<wgt id='1879'> +7.5976455e+01 </wgt>
<wgt id='1880'> +7.6340224e+01 </wgt>
<wgt id='1881'> +7.6094199e+01 </wgt>
<wgt id='1882'> +7.6063129e+01 </wgt>
<wgt id='1883'> +7.6412762e+01 </wgt>
<wgt id='1884'> +7.6338951e+01 </wgt>
<wgt id='1885'> +7.6300428e+01 </wgt>
<wgt id='1886'> +7.6174000e+01 </wgt>
<wgt id='1887'> +7.6215667e+01 </wgt>
<wgt id='1888'> +7.6119825e+01 </wgt>
<wgt id='1889'> +7.6161220e+01 </wgt>
<wgt id='1890'> +7.6313561e+01 </wgt>
<wgt id='1891'> +7.6252531e+01 </wgt>
<wgt id='1892'> +7.6240853e+01 </wgt>
<wgt id='1893'> +7.6116741e+01 </wgt>
<wgt id='1894'> +7.6240332e+01 </wgt>
<wgt id='1895'> +7.5994314e+01 </wgt>
<wgt id='1896'> +7.5998744e+01 </wgt>
<wgt id='1897'> +7.6065431e+01 </wgt>
<wgt id='1898'> +7.6101832e+01 </wgt>
<wgt id='1899'> +7.6156460e+01 </wgt>
<wgt id='1900'> +7.6222948e+01 </wgt>
<wgt id='1901'> +7.6111365e+01 </wgt>
<wgt id='1902'> +7.6155928e+01 </wgt>
<wgt id='1903'> +7.6127735e+01 </wgt>
<wgt id='1904'> +7.6094856e+01 </wgt>
<wgt id='1905'> +7.6172048e+01 </wgt>
<wgt id='1906'> +7.6205133e+01 </wgt>
<wgt id='1907'> +7.6174682e+01 </wgt>
<wgt id='1908'> +7.6129398e+01 </wgt>
<wgt id='1909'> +7.6110510e+01 </wgt>
<wgt id='1910'> +7.6064204e+01 </wgt>
<wgt id='1911'> +7.6148586e+01 </wgt>
<wgt id='1912'> +7.6142126e+01 </wgt>
<wgt id='1913'> +7.6034524e+01 </wgt>
<wgt id='1914'> +7.6100027e+01 </wgt>
<wgt id='1915'> +7.6119299e+01 </wgt>
<wgt id='1916'> +7.6133556e+01 </wgt>
<wgt id='1917'> +7.6113714e+01 </wgt>
<wgt id='1918'> +7.6115016e+01 </wgt>
<wgt id='1919'> +7.6112143e+01 </wgt>
<wgt id='1920'> +7.6155540e+01 </wgt>
<wgt id='1921'> +7.6121107e+01 </wgt>
<wgt id='1922'> +7.6150078e+01 </wgt>
<wgt id='1923'> +7.6154567e+01 </wgt>
<wgt id='1924'> +7.6171047e+01 </wgt>
<wgt id='1925'> +7.6120790e+01 </wgt>
<wgt id='1926'> +7.6181817e+01 </wgt>
<wgt id='1927'> +7.6152569e+01 </wgt>
<wgt id='1928'> +7.6117389e+01 </wgt>
<wgt id='1929'> +7.6133729e+01 </wgt>
<wgt id='1930'> +7.6139137e+01 </wgt>
<wgt id='1931'> +7.6111302e+01 </wgt>
<wgt id='1932'> +7.6129556e+01 </wgt>
<wgt id='1933'> +7.6129255e+01 </wgt>
<wgt id='1934'> +7.6108550e+01 </wgt>
<wgt id='1935'> +7.6185759e+01 </wgt>
<wgt id='1936'> +7.6123321e+01 </wgt>
<wgt id='1937'> +7.6138861e+01 </wgt>
<wgt id='1938'> +7.6109866e+01 </wgt>
<wgt id='1939'> +7.6125737e+01 </wgt>
<wgt id='1940'> +7.6102476e+01 </wgt>
<wgt id='1941'> +7.6157440e+01 </wgt>
<wgt id='1942'> +7.6080767e+01 </wgt>
<wgt id='1943'> +7.6097601e+01 </wgt>
<wgt id='1944'> +7.6111511e+01 </wgt>
<wgt id='1945'> +7.6125024e+01 </wgt>
<wgt id='1946'> +7.6134377e+01 </wgt>
<wgt id='1947'> +7.6130787e+01 </wgt>
<wgt id='1948'> +7.6105230e+01 </wgt>
<wgt id='1949'> +7.6123079e+01 </wgt>
<wgt id='1950'> +7.6145077e+01 </wgt>
<wgt id='1951'> +7.6111529e+01 </wgt>
<wgt id='1952'> +7.6135437e+01 </wgt>
<wgt id='1953'> +7.6133184e+01 </wgt>
<wgt id='1954'> +7.6117874e+01 </wgt>
<wgt id='1955'> +7.6128366e+01 </wgt>
<wgt id='1956'> +7.6128851e+01 </wgt>
<wgt id='1957'> +7.6132721e+01 </wgt>
<wgt id='1958'> +7.6130069e+01 </wgt>
<wgt id='1959'> +7.6130189e+01 </wgt>
<wgt id='1960'> +7.6131291e+01 </wgt>
<wgt id='1961'> +7.6129722e+01 </wgt>
<wgt id='1962'> +7.6133353e+01 </wgt>
</rwgt>
</event>
<event npLO=" -1 " npNLO=" 1 ">
 7      1 +1.5146096e+02 2.75010630e+01 7.54677110e-03 1.33014060e-01
       21 -1    0    0  501  502 +0.0000000000e+00 +0.0000000000e+00 +5.6080356000e+01 5.6080356000e+01 0.0000000000e+00 0.0000e+00 9.0000e+00
       -4 -1    0    0    0  501 +0.0000000000e+00 +0.0000000000e+00 -3.0933071000e+02 3.0933071000e+02 0.0000000000e+00 0.0000e+00 9.0000e+00
       23  2    1    2    0    0 +3.3240291000e+01 -3.4271256000e+01 -2.2271269000e+02 2.4504534000e+02 9.0370586000e+01 0.0000e+00 0.0000e+00
       15  1    3    3    0    0 +6.1231479000e+01 -3.9346499000e+01 -1.7381073000e+02 1.8844301000e+02 1.7770000000e+00 0.0000e+00 9.0000e+00
      -15  1    3    3    0    0 -2.7991188000e+01 +5.0752429000e+00 -4.8901954000e+01 5.6602328000e+01 1.7770000000e+00 0.0000e+00 9.0000e+00
       22  1    1    2    0    0 -8.4083566000e+00 +2.2452478000e+01 -6.9020649000e+01 7.3066164000e+01 0.0000000000e+00 0.0000e+00 9.0000e+00
       -4  1    1    2    0  502 -2.4831934000e+01 +1.1818778000e+01 +3.8482982000e+01 4.7299560000e+01 0.0000000000e+00 0.0000e+00 9.0000e+00
#aMCatNLO 1  0  0  2  1 0.21707649E+02 0.00000000E+00 -9  7  0 0.00000000E+00 0.00000000E+00 0.00000000E+00 0.00000000E+00 0.00000000E+00
<rwgt>
<wgt id='1001'> +1.5146000e+02 </wgt>
<wgt id='1002'> +1.5146000e+02 </wgt>
<wgt id='1003'> +1.4407000e+02 </wgt>
<wgt id='1004'> +1.5267000e+02 </wgt>
<wgt id='1005'> +1.5250000e+02 </wgt>
<wgt id='1006'> +1.4801000e+02 </wgt>
<wgt id='1007'> +1.3919000e+02 </wgt>
<wgt id='1008'> +1.5500000e+02 </wgt>
<wgt id='1009'> +1.5260000e+02 </wgt>
<wgt id='1010'> +1.5144000e+02 </wgt>
<wgt id='1011'> +1.5355000e+02 </wgt>
<wgt id='1012'> +1.4565000e+02 </wgt>
<wgt id='1013'> +1.4338000e+02 </wgt>
<wgt id='1014'> +1.5519000e+02 </wgt>
<wgt id='1015'> +1.5337000e+02 </wgt>
<wgt id='1016'> +1.4724000e+02 </wgt>
<wgt id='1017'> +1.5449000e+02 </wgt>
<wgt id='1018'> +1.5504000e+02 </wgt>
<wgt id='1019'> +1.4993000e+02 </wgt>
<wgt id='1020'> +1.5199000e+02 </wgt>
<wgt id='1021'> +1.5431000e+02 </wgt>
<wgt id='1022'> +1.5835000e+02 </wgt>
<wgt id='1023'> +1.5308000e+02 </wgt>
<wgt id='1024'> +1.4959000e+02 </wgt>
<wgt id='1025'> +1.6474000e+02 </wgt>
<wgt id='1026'> +1.5059000e+02 </wgt>
<wgt id='1027'> +1.5191000e+02 </wgt>
<wgt id='1028'> +1.5003000e+02 </wgt>
<wgt id='1029'> +1.5052000e+02 </wgt>
<wgt id='1030'> +1.4886000e+02 </wgt>
<wgt id='1031'> +1.5329000e+02 </wgt>
<wgt id='1032'> +1.5761000e+02 </wgt>
<wgt id='1033'> +1.4969000e+02 </wgt>
<wgt id='1034'> +1.4517000e+02 </wgt>
<wgt id='1035'> +1.5054000e+02 </wgt>
<wgt id='1036'> +1.5229000e+02 </wgt>
<wgt id='1037'> +1.5552000e+02 </wgt>
<wgt id='1038'> +1.5340000e+02 </wgt>
<wgt id='1039'> +1.5466000e+02 </wgt>
<wgt id='1040'> +1.5072000e+02 </wgt>
<wgt id='1041'> +1.4840000e+02 </wgt>
<wgt id='1042'> +1.5117000e+02 </wgt>
<wgt id='1043'> +1.5172000e+02 </wgt>
<wgt id='1044'> +1.5242000e+02 </wgt>
<wgt id='1045'> +1.5137000e+02 </wgt>
<wgt id='1046'> +1.5109000e+02 </wgt>
<wgt id='1047'> +1.5168000e+02 </wgt>
<wgt id='1048'> +1.5472000e+02 </wgt>
<wgt id='1049'> +1.4876000e+02 </wgt>
<wgt id='1050'> +1.4963000e+02 </wgt>
<wgt id='1051'> +1.5132000e+02 </wgt>
<wgt id='1052'> +1.5019000e+02 </wgt>
<wgt id='1053'> +1.5046000e+02 </wgt>
<wgt id='1054'> +1.4949000e+02 </wgt>
<wgt id='1055'> +1.5405000e+02 </wgt>
<wgt id='1056'> +1.5055000e+02 </wgt>
<wgt id='1057'> +1.4855000e+02 </wgt>
<wgt id='1058'> +1.4863000e+02 </wgt>
<wgt id='1059'> +1.5655000e+02 </wgt>
<wgt id='1060'> +1.4834000e+02 </wgt>
<wgt id='1061'> +1.5657000e+02 </wgt>
<wgt id='1062'> +1.5051000e+02 </wgt>
<wgt id='1063'> +1.5191000e+02 </wgt>
<wgt id='1064'> +1.5355000e+02 </wgt>
<wgt id='1065'> +1.5012000e+02 </wgt>
<wgt id='1066'> +1.4952000e+02 </wgt>
<wgt id='1067'> +1.5144000e+02 </wgt>
<wgt id='1068'> +1.5097000e+02 </wgt>
<wgt id='1069'> +1.6393000e+02 </wgt>
<wgt id='1070'> +1.4926000e+02 </wgt>
<wgt id='1071'> +1.4492000e+02 </wgt>
<wgt id='1072'> +1.4830000e+02 </wgt>
<wgt id='1073'> +1.5182000e+02 </wgt>
<wgt id='1074'> +1.5215000e+02 </wgt>
<wgt id='1075'> +1.4194000e+02 </wgt>
<wgt id='1076'> +1.5300000e+02 </wgt>
<wgt id='1077'> +1.4971000e+02 </wgt>
<wgt id='1078'> +1.4603000e+02 </wgt>
<wgt id='1079'> +1.5141000e+02 </wgt>
<wgt id='1080'> +1.5612000e+02 </wgt>
<wgt id='1081'> +1.5002000e+02 </wgt>
<wgt id='1082'> +1.5134000e+02 </wgt>
<wgt id='1083'> +1.5181000e+02 </wgt>
<wgt id='1084'> +1.4693000e+02 </wgt>
<wgt id='1085'> +1.5697000e+02 </wgt>
<wgt id='1086'> +1.5042000e+02 </wgt>
<wgt id='1087'> +1.4777000e+02 </wgt>
<wgt id='1088'> +1.4958000e+02 </wgt>
<wgt id='1089'> +1.5117000e+02 </wgt>
<wgt id='1090'> +1.5096000e+02 </wgt>
<wgt id='1091'> +1.5871000e+02 </wgt>
<wgt id='1092'> +1.4985000e+02 </wgt>
<wgt id='1093'> +1.4749000e+02 </wgt>
<wgt id='1094'> +1.5297000e+02 </wgt>
<wgt id='1095'> +1.5163000e+02 </wgt>
<wgt id='1096'> +1.5604000e+02 </wgt>
<wgt id='1097'> +1.4872000e+02 </wgt>
<wgt id='1098'> +1.5384000e+02 </wgt>
<wgt id='1099'> +1.5170000e+02 </wgt>
<wgt id='1100'> +1.5590000e+02 </wgt>
<wgt id='1101'> +1.5457000e+02 </wgt>
<wgt id='1102'> +1.5597000e+02 </wgt>
<wgt id='1103'> +1.4773000e+02 </wgt>
<wgt id='1104'> +1.5377000e+02 </wgt>
<wgt id='1105'> +1.5146096e+02 </wgt>
<wgt id='1106'> +6.3179479e+01 </wgt>
<wgt id='1107'> +9.3505548e+01 </wgt>
<wgt id='1108'> +8.3872688e+01 </wgt>
<wgt id='1109'> +7.0054343e+01 </wgt>
<wgt id='1110'> +1.0343263e+02 </wgt>
<wgt id='1111'> +6.4782286e+01 </wgt>
<wgt id='1112'> +5.3955937e+01 </wgt>
<wgt id='1113'> +8.0125626e+01 </wgt>
<wgt id='1114'> +6.8222971e+01 </wgt>
<wgt id='1115'> +5.5485556e+01 </wgt>
<wgt id='1116'> +6.9552720e+01 </wgt>
<wgt id='1117'> +6.9006569e+01 </wgt>
<wgt id='1118'> +6.9607874e+01 </wgt>
<wgt id='1119'> +6.8936701e+01 </wgt>
<wgt id='1120'> +6.7619582e+01 </wgt>
<wgt id='1121'> +6.7625167e+01 </wgt>
<wgt id='1122'> +7.1347351e+01 </wgt>
<wgt id='1123'> +6.8374981e+01 </wgt>
<wgt id='1124'> +7.0086979e+01 </wgt>
<wgt id='1125'> +7.1781824e+01 </wgt>
<wgt id='1126'> +6.8865980e+01 </wgt>
<wgt id='1127'> +7.0744147e+01 </wgt>
<wgt id='1128'> +6.9654784e+01 </wgt>
<wgt id='1129'> +6.7491872e+01 </wgt>
<wgt id='1130'> +6.9743518e+01 </wgt>
<wgt id='1131'> +6.6671085e+01 </wgt>
<wgt id='1132'> +7.0617641e+01 </wgt>
<wgt id='1133'> +6.4542663e+01 </wgt>
<wgt id='1134'> +7.1540576e+01 </wgt>
<wgt id='1135'> +6.4666421e+01 </wgt>
<wgt id='1136'> +6.1583342e+01 </wgt>
<wgt id='1137'> +6.3911318e+01 </wgt>
<wgt id='1138'> +6.7493343e+01 </wgt>
<wgt id='1139'> +6.9752340e+01 </wgt>
<wgt id='1140'> +6.5641018e+01 </wgt>
<wgt id='1141'> +6.1337579e+01 </wgt>
<wgt id='1142'> +6.7645790e+01 </wgt>
<wgt id='1143'> +6.8362619e+01 </wgt>
<wgt id='1144'> +7.1277613e+01 </wgt>
<wgt id='1145'> +6.4142808e+01 </wgt>
<wgt id='1146'> +7.8370817e+01 </wgt>
<wgt id='1147'> +6.7990855e+01 </wgt>
<wgt id='1148'> +6.9074554e+01 </wgt>
<wgt id='1149'> +6.9904431e+01 </wgt>
<wgt id='1150'> +6.6652004e+01 </wgt>
<wgt id='1151'> +6.7316742e+01 </wgt>
<wgt id='1152'> +7.0918944e+01 </wgt>
<wgt id='1153'> +6.4193386e+01 </wgt>
<wgt id='1154'> +6.8907928e+01 </wgt>
<wgt id='1155'> +6.6433965e+01 </wgt>
<wgt id='1156'> +6.7744702e+01 </wgt>
<wgt id='1157'> +6.2630111e+01 </wgt>
<wgt id='1158'> +6.0604335e+01 </wgt>
<wgt id='1159'> +6.7692902e+01 </wgt>
<wgt id='1160'> +6.6733139e+01 </wgt>
<wgt id='1161'> +6.8619374e+01 </wgt>
<wgt id='1162'> +7.1114977e+01 </wgt>
<wgt id='1163'> +6.7787326e+01 </wgt>
<wgt id='1164'> +7.0689034e+01 </wgt>
<wgt id='1165'> +6.5836271e+01 </wgt>
<wgt id='1166'> +7.0087966e+01 </wgt>
<wgt id='1167'> +7.4735937e+01 </wgt>
<wgt id='1168'> +6.3123078e+01 </wgt>
<wgt id='1169'> +6.5313153e+01 </wgt>
<wgt id='1170'> +6.5096822e+01 </wgt>
<wgt id='1171'> +6.0417373e+01 </wgt>
<wgt id='1172'> +6.6955381e+01 </wgt>
<wgt id='1173'> +7.3982415e+01 </wgt>
<wgt id='1174'> +6.0666181e+01 </wgt>
<wgt id='1175'> +6.5796769e+01 </wgt>
<wgt id='1176'> +6.8895626e+01 </wgt>
<wgt id='1177'> +6.5537737e+01 </wgt>
<wgt id='1178'> +7.4203046e+01 </wgt>
<wgt id='1179'> +6.8383900e+01 </wgt>
<wgt id='1180'> +7.0662096e+01 </wgt>
<wgt id='1181'> +6.0818318e+01 </wgt>
<wgt id='1182'> +6.8288691e+01 </wgt>
<wgt id='1183'> +6.8856593e+01 </wgt>
<wgt id='1184'> +7.0014262e+01 </wgt>
<wgt id='1185'> +6.8540133e+01 </wgt>
<wgt id='1186'> +6.6778502e+01 </wgt>
<wgt id='1187'> +8.0825441e+01 </wgt>
<wgt id='1188'> +7.7788964e+01 </wgt>
<wgt id='1189'> +7.0858664e+01 </wgt>
<wgt id='1190'> +5.9656347e+01 </wgt>
<wgt id='1191'> +7.2179020e+01 </wgt>
<wgt id='1192'> +6.7737672e+01 </wgt>
<wgt id='1193'> +7.0830788e+01 </wgt>
<wgt id='1194'> +6.9441403e+01 </wgt>
<wgt id='1195'> +6.6666992e+01 </wgt>
<wgt id='1196'> +6.9743518e+01 </wgt>
<wgt id='1197'> +6.8995292e+01 </wgt>
<wgt id='1198'> +7.0751423e+01 </wgt>
<wgt id='1199'> +6.9845872e+01 </wgt>
<wgt id='1200'> +6.1378101e+01 </wgt>
<wgt id='1201'> +7.0291555e+01 </wgt>
<wgt id='1202'> +6.8956892e+01 </wgt>
<wgt id='1203'> +8.1427666e+01 </wgt>
<wgt id='1204'> +6.8495772e+01 </wgt>
<wgt id='1205'> +6.3687245e+01 </wgt>
<wgt id='1206'> +7.5522156e+01 </wgt>
<wgt id='1207'> +7.0210099e+01 </wgt>
<wgt id='1208'> +7.1241708e+01 </wgt>
<wgt id='1209'> +6.7275957e+01 </wgt>
<wgt id='1210'> +6.6336088e+01 </wgt>
<wgt id='1211'> +6.1843866e+01 </wgt>
<wgt id='1212'> +7.0599038e+01 </wgt>
<wgt id='1213'> +7.3788720e+01 </wgt>
<wgt id='1214'> +6.5323155e+01 </wgt>
<wgt id='1215'> +7.8505623e+01 </wgt>
<wgt id='1216'> +6.4361395e+01 </wgt>
<wgt id='1217'> +6.4527824e+01 </wgt>
<wgt id='1218'> +6.4137397e+01 </wgt>
<wgt id='1219'> +6.4551344e+01 </wgt>
<wgt id='1220'> +6.4155547e+01 </wgt>
<wgt id='1221'> +6.4608273e+01 </wgt>
<wgt id='1222'> +6.4121896e+01 </wgt>
<wgt id='1223'> +6.4082082e+01 </wgt>
<wgt id='1224'> +6.4066534e+01 </wgt>
<wgt id='1225'> +6.3913643e+01 </wgt>
<wgt id='1226'> +6.4559330e+01 </wgt>
<wgt id='1227'> +6.4438160e+01 </wgt>
<wgt id='1228'> +6.4879436e+01 </wgt>
<wgt id='1229'> +6.3813366e+01 </wgt>
<wgt id='1230'> +6.3893499e+01 </wgt>
<wgt id='1231'> +6.5020360e+01 </wgt>
<wgt id='1232'> +6.3867448e+01 </wgt>
<wgt id='1233'> +6.5078133e+01 </wgt>
<wgt id='1234'> +6.4510086e+01 </wgt>
<wgt id='1235'> +6.4546781e+01 </wgt>
<wgt id='1236'> +6.4836787e+01 </wgt>
<wgt id='1237'> +6.3116661e+01 </wgt>
<wgt id='1238'> +6.4347879e+01 </wgt>
<wgt id='1239'> +6.3981184e+01 </wgt>
<wgt id='1240'> +6.3476687e+01 </wgt>
<wgt id='1241'> +6.4896244e+01 </wgt>
<wgt id='1242'> +6.4540525e+01 </wgt>
<wgt id='1243'> +6.4703214e+01 </wgt>
<wgt id='1244'> +6.4024268e+01 </wgt>
<wgt id='1245'> +6.3371064e+01 </wgt>
<wgt id='1246'> +6.4656521e+01 </wgt>
<wgt id='1247'> +6.4835741e+01 </wgt>
<wgt id='1248'> +6.4691721e+01 </wgt>
<wgt id='1249'> +6.4604443e+01 </wgt>
<wgt id='1250'> +6.4821322e+01 </wgt>
<wgt id='1251'> +6.4872973e+01 </wgt>
<wgt id='1252'> +6.4922056e+01 </wgt>
<wgt id='1253'> +6.4755762e+01 </wgt>
<wgt id='1254'> +6.4904734e+01 </wgt>
<wgt id='1255'> +6.4517211e+01 </wgt>
<wgt id='1256'> +6.4443791e+01 </wgt>
<wgt id='1257'> +6.5119590e+01 </wgt>
<wgt id='1258'> +6.4623043e+01 </wgt>
<wgt id='1259'> +6.3782052e+01 </wgt>
<wgt id='1260'> +6.4828835e+01 </wgt>
<wgt id='1261'> +6.4213806e+01 </wgt>
<wgt id='1262'> +6.4632169e+01 </wgt>
<wgt id='1263'> +6.4378371e+01 </wgt>
<wgt id='1264'> +6.4004066e+01 </wgt>
<wgt id='1265'> +6.4133810e+01 </wgt>
<wgt id='1266'> +6.4003388e+01 </wgt>
<wgt id='1267'> +6.3868524e+01 </wgt>
<wgt id='1268'> +6.4643330e+01 </wgt>
<wgt id='1269'> +6.4770347e+01 </wgt>
<wgt id='1270'> +6.4367497e+01 </wgt>
<wgt id='1271'> +6.4351830e+01 </wgt>
<wgt id='1272'> +6.4103214e+01 </wgt>
<wgt id='1273'> +6.4873211e+01 </wgt>
<wgt id='1274'> +6.4741098e+01 </wgt>
<wgt id='1275'> +6.4127532e+01 </wgt>
<wgt id='1276'> +6.3925159e+01 </wgt>
<wgt id='1277'> +6.4001425e+01 </wgt>
<wgt id='1278'> +6.4036829e+01 </wgt>
<wgt id='1279'> +6.3595431e+01 </wgt>
<wgt id='1280'> +6.4466012e+01 </wgt>
<wgt id='1281'> +6.4228486e+01 </wgt>
<wgt id='1282'> +6.4094687e+01 </wgt>
<wgt id='1283'> +6.4935115e+01 </wgt>
<wgt id='1284'> +6.4467505e+01 </wgt>
<wgt id='1285'> +6.4988139e+01 </wgt>
<wgt id='1286'> +6.4600059e+01 </wgt>
<wgt id='1287'> +6.4309020e+01 </wgt>
<wgt id='1288'> +6.3985431e+01 </wgt>
<wgt id='1289'> +6.4725451e+01 </wgt>
<wgt id='1290'> +6.3960523e+01 </wgt>
<wgt id='1291'> +6.4584724e+01 </wgt>
<wgt id='1292'> +6.4525713e+01 </wgt>
<wgt id='1293'> +6.3896800e+01 </wgt>
<wgt id='1294'> +6.4334071e+01 </wgt>
<wgt id='1295'> +6.4578547e+01 </wgt>
<wgt id='1296'> +6.4602307e+01 </wgt>
<wgt id='1297'> +6.4349695e+01 </wgt>
<wgt id='1298'> +6.4420697e+01 </wgt>
<wgt id='1299'> +6.4035479e+01 </wgt>
<wgt id='1300'> +6.4596617e+01 </wgt>
<wgt id='1301'> +6.4318505e+01 </wgt>
<wgt id='1302'> +6.4606529e+01 </wgt>
<wgt id='1303'> +6.4539069e+01 </wgt>
<wgt id='1304'> +6.4733765e+01 </wgt>
<wgt id='1305'> +6.4615137e+01 </wgt>
<wgt id='1306'> +6.4388009e+01 </wgt>
<wgt id='1307'> +6.4274111e+01 </wgt>
<wgt id='1308'> +6.4509475e+01 </wgt>
<wgt id='1309'> +6.4189205e+01 </wgt>
<wgt id='1310'> +6.4078053e+01 </wgt>
<wgt id='1311'> +6.3840647e+01 </wgt>
<wgt id='1312'> +6.4455338e+01 </wgt>
<wgt id='1313'> +6.4373687e+01 </wgt>
<wgt id='1314'> +6.4620469e+01 </wgt>
<wgt id='1315'> +6.3823769e+01 </wgt>
<wgt id='1316'> +6.4447279e+01 </wgt>
<wgt id='1317'> +5.9973842e+01 </wgt>
<wgt id='1318'> +6.8918078e+01 </wgt>
<wgt id='1319'> +6.7629728e+01 </wgt>
<wgt id='1320'> +7.2527737e+01 </wgt>
<wgt id='1321'> +7.2514470e+01 </wgt>
<wgt id='1322'> +7.2699386e+01 </wgt>
<wgt id='1323'> +7.2818820e+01 </wgt>
<wgt id='1324'> +7.1607166e+01 </wgt>
<wgt id='1325'> +7.2632061e+01 </wgt>
<wgt id='1326'> +7.2455034e+01 </wgt>
<wgt id='1327'> +7.3287181e+01 </wgt>
<wgt id='1328'> +7.1837717e+01 </wgt>
<wgt id='1329'> +7.1344033e+01 </wgt>
<wgt id='1330'> +7.3115959e+01 </wgt>
<wgt id='1331'> +7.4305654e+01 </wgt>
<wgt id='1332'> +7.1344395e+01 </wgt>
<wgt id='1333'> +7.0080976e+01 </wgt>
<wgt id='1334'> +7.4011836e+01 </wgt>
<wgt id='1335'> +7.4106717e+01 </wgt>
<wgt id='1336'> +7.1485587e+01 </wgt>
<wgt id='1337'> +7.1033901e+01 </wgt>
<wgt id='1338'> +7.4302852e+01 </wgt>
<wgt id='1339'> +7.3707265e+01 </wgt>
<wgt id='1340'> +7.1234732e+01 </wgt>
<wgt id='1341'> +7.2847519e+01 </wgt>
<wgt id='1342'> +7.1868784e+01 </wgt>
<wgt id='1343'> +7.2163485e+01 </wgt>
<wgt id='1344'> +7.2847575e+01 </wgt>
<wgt id='1345'> +7.2649031e+01 </wgt>
<wgt id='1346'> +7.2346622e+01 </wgt>
<wgt id='1347'> +7.2424104e+01 </wgt>
<wgt id='1348'> +7.2662901e+01 </wgt>
<wgt id='1349'> +7.2036572e+01 </wgt>
<wgt id='1350'> +7.2700494e+01 </wgt>
<wgt id='1351'> +7.2812768e+01 </wgt>
<wgt id='1352'> +7.2157799e+01 </wgt>
<wgt id='1353'> +7.2115363e+01 </wgt>
<wgt id='1354'> +7.3418705e+01 </wgt>
<wgt id='1355'> +7.2765495e+01 </wgt>
<wgt id='1356'> +7.2312413e+01 </wgt>
<wgt id='1357'> +7.2981266e+01 </wgt>
<wgt id='1358'> +7.1766838e+01 </wgt>
<wgt id='1359'> +7.2460320e+01 </wgt>
<wgt id='1360'> +7.2545795e+01 </wgt>
<wgt id='1361'> +7.2828667e+01 </wgt>
<wgt id='1362'> +7.2290291e+01 </wgt>
<wgt id='1363'> +7.2913394e+01 </wgt>
<wgt id='1364'> +7.2599018e+01 </wgt>
<wgt id='1365'> +7.1444236e+01 </wgt>
<wgt id='1366'> +7.2562226e+01 </wgt>
<wgt id='1367'> +7.1876068e+01 </wgt>
<wgt id='1368'> +7.1814406e+01 </wgt>
<wgt id='1369'> +7.1504228e+01 </wgt>
<wgt id='1370'> +7.1520562e+01 </wgt>
<wgt id='1371'> +7.2486285e+01 </wgt>
<wgt id='1372'> +7.2467785e+01 </wgt>
<wgt id='1373'> +7.0115298e+01 </wgt>
<wgt id='1374'> +7.3371490e+01 </wgt>
<wgt id='1375'> +7.1778671e+01 </wgt>
<wgt id='1376'> +7.3726149e+01 </wgt>
<wgt id='1377'> +6.9029682e+01 </wgt>
<wgt id='1378'> +7.6099477e+01 </wgt>
<wgt id='1379'> +7.6021167e+01 </wgt>
<wgt id='1380'> +7.2302752e+01 </wgt>
<wgt id='1381'> +7.9682938e+01 </wgt>
<wgt id='1382'> +6.0233630e+01 </wgt>
<wgt id='1383'> +7.2668794e+01 </wgt>
<wgt id='1384'> +7.3986561e+01 </wgt>
<wgt id='1385'> +9.5256322e+01 </wgt>
<wgt id='1386'> +9.5338466e+01 </wgt>
<wgt id='1387'> +9.5162497e+01 </wgt>
<wgt id='1388'> +9.4780994e+01 </wgt>
<wgt id='1389'> +9.6075138e+01 </wgt>
<wgt id='1390'> +9.4936803e+01 </wgt>
<wgt id='1391'> +9.5634144e+01 </wgt>
<wgt id='1392'> +9.4798121e+01 </wgt>
<wgt id='1393'> +9.5571244e+01 </wgt>
<wgt id='1394'> +9.5020437e+01 </wgt>
<wgt id='1395'> +9.5549934e+01 </wgt>
<wgt id='1396'> +9.4307541e+01 </wgt>
<wgt id='1397'> +9.5750708e+01 </wgt>
<wgt id='1398'> +9.5853728e+01 </wgt>
<wgt id='1399'> +9.4803044e+01 </wgt>
<wgt id='1400'> +9.4711114e+01 </wgt>
<wgt id='1401'> +9.5667781e+01 </wgt>
<wgt id='1402'> +9.5005414e+01 </wgt>
<wgt id='1403'> +9.5372300e+01 </wgt>
<wgt id='1404'> +9.6789362e+01 </wgt>
<wgt id='1405'> +9.4511927e+01 </wgt>
<wgt id='1406'> +9.5083123e+01 </wgt>
<wgt id='1407'> +9.5568311e+01 </wgt>
<wgt id='1408'> +9.5250221e+01 </wgt>
<wgt id='1409'> +9.5272713e+01 </wgt>
<wgt id='1410'> +9.5175368e+01 </wgt>
<wgt id='1411'> +9.5389641e+01 </wgt>
<wgt id='1412'> +9.5950644e+01 </wgt>
<wgt id='1413'> +9.4415694e+01 </wgt>
<wgt id='1414'> +9.5764743e+01 </wgt>
<wgt id='1415'> +9.4931585e+01 </wgt>
<wgt id='1416'> +9.5436713e+01 </wgt>
<wgt id='1417'> +9.5146869e+01 </wgt>
<wgt id='1418'> +9.5775471e+01 </wgt>
<wgt id='1419'> +9.4151957e+01 </wgt>
<wgt id='1420'> +9.4660003e+01 </wgt>
<wgt id='1421'> +9.5209852e+01 </wgt>
<wgt id='1422'> +9.5567916e+01 </wgt>
<wgt id='1423'> +9.4901085e+01 </wgt>
<wgt id='1424'> +9.5780706e+01 </wgt>
<wgt id='1425'> +9.4237204e+01 </wgt>
<wgt id='1426'> +9.5531719e+01 </wgt>
<wgt id='1427'> +9.4999323e+01 </wgt>
<wgt id='1428'> +9.5712963e+01 </wgt>
<wgt id='1429'> +9.5388789e+01 </wgt>
<wgt id='1430'> +9.5243108e+01 </wgt>
<wgt id='1431'> +9.5270959e+01 </wgt>
<wgt id='1432'> +9.5172398e+01 </wgt>
<wgt id='1433'> +9.5338794e+01 </wgt>
<wgt id='1434'> +9.5197297e+01 </wgt>
<wgt id='1435'> +9.5301382e+01 </wgt>
<wgt id='1436'> +1.7990219e+01 </wgt>
<wgt id='1437'> +1.7983129e+01 </wgt>
<wgt id='1438'> +1.7995693e+01 </wgt>
<wgt id='1439'> +1.7988920e+01 </wgt>
<wgt id='1440'> +1.8053518e+01 </wgt>
<wgt id='1441'> +1.8013000e+01 </wgt>
<wgt id='1442'> +1.7953553e+01 </wgt>
<wgt id='1443'> +1.7965232e+01 </wgt>
<wgt id='1444'> +1.7872458e+01 </wgt>
<wgt id='1445'> +1.7945240e+01 </wgt>
<wgt id='1446'> +1.7992580e+01 </wgt>
<wgt id='1447'> +1.7988705e+01 </wgt>
<wgt id='1448'> +1.7948613e+01 </wgt>
<wgt id='1449'> +1.7918268e+01 </wgt>
<wgt id='1450'> +1.7995720e+01 </wgt>
<wgt id='1451'> +1.7988199e+01 </wgt>
<wgt id='1452'> +1.7948159e+01 </wgt>
<wgt id='1453'> +1.8032301e+01 </wgt>
<wgt id='1454'> +1.8039516e+01 </wgt>
<wgt id='1455'> +1.7970614e+01 </wgt>
<wgt id='1456'> +1.7993702e+01 </wgt>
<wgt id='1457'> +1.8042568e+01 </wgt>
<wgt id='1458'> +1.8013692e+01 </wgt>
<wgt id='1459'> +1.8081368e+01 </wgt>
<wgt id='1460'> +1.8010787e+01 </wgt>
<wgt id='1461'> +1.8024220e+01 </wgt>
<wgt id='1462'> +1.7969597e+01 </wgt>
<wgt id='1463'> +1.7969097e+01 </wgt>
<wgt id='1464'> +1.8019799e+01 </wgt>
<wgt id='1465'> +7.4848516e+01 </wgt>
<wgt id='1466'> +7.3613503e+01 </wgt>
<wgt id='1467'> +7.3026121e+01 </wgt>
<wgt id='1468'> +7.4260651e+01 </wgt>
<wgt id='1469'> +7.3987948e+01 </wgt>
<wgt id='1470'> +7.3256552e+01 </wgt>
<wgt id='1471'> +7.3549437e+01 </wgt>
<wgt id='1472'> +7.3680274e+01 </wgt>
<wgt id='1473'> +7.3470143e+01 </wgt>
<wgt id='1474'> +7.3227956e+01 </wgt>
<wgt id='1475'> +7.3693606e+01 </wgt>
<wgt id='1476'> +7.4876266e+01 </wgt>
<wgt id='1477'> +7.3467209e+01 </wgt>
<wgt id='1478'> +7.2849270e+01 </wgt>
<wgt id='1479'> +7.4017765e+01 </wgt>
<wgt id='1480'> +7.2331732e+01 </wgt>
<wgt id='1481'> +7.4024409e+01 </wgt>
<wgt id='1482'> +7.3359987e+01 </wgt>
<wgt id='1483'> +7.3037715e+01 </wgt>
<wgt id='1484'> +7.3364101e+01 </wgt>
<wgt id='1485'> +7.3026758e+01 </wgt>
<wgt id='1486'> +7.3253836e+01 </wgt>
<wgt id='1487'> +7.3505061e+01 </wgt>
<wgt id='1488'> +7.3833761e+01 </wgt>
<wgt id='1489'> +7.3190801e+01 </wgt>
<wgt id='1490'> +7.3702683e+01 </wgt>
<wgt id='1491'> +7.3996542e+01 </wgt>
<wgt id='1492'> +7.3535048e+01 </wgt>
<wgt id='1493'> +7.3473205e+01 </wgt>
<wgt id='1494'> +7.3574858e+01 </wgt>
<wgt id='1495'> +7.3560223e+01 </wgt>
<wgt id='1496'> +7.3668627e+01 </wgt>
<wgt id='1497'> +7.3583547e+01 </wgt>
<wgt id='1498'> +7.3635921e+01 </wgt>
<wgt id='1499'> +7.3545736e+01 </wgt>
<wgt id='1500'> +7.3701674e+01 </wgt>
<wgt id='1501'> +7.3707166e+01 </wgt>
<wgt id='1502'> +7.3564519e+01 </wgt>
<wgt id='1503'> +7.3625182e+01 </wgt>
<wgt id='1504'> +7.3508923e+01 </wgt>
<wgt id='1505'> +7.3623058e+01 </wgt>
<wgt id='1506'> +7.3661359e+01 </wgt>
<wgt id='1507'> +7.3601412e+01 </wgt>
<wgt id='1508'> +7.3614911e+01 </wgt>
<wgt id='1509'> +7.3556554e+01 </wgt>
<wgt id='1510'> +7.3666395e+01 </wgt>
<wgt id='1511'> +7.3643917e+01 </wgt>
<wgt id='1512'> +7.3610197e+01 </wgt>
<wgt id='1513'> +7.3667669e+01 </wgt>
<wgt id='1514'> +7.3561828e+01 </wgt>
<wgt id='1515'> +7.3618031e+01 </wgt>
<wgt id='1516'> +7.3605256e+01 </wgt>
<wgt id='1517'> +7.3561829e+01 </wgt>
<wgt id='1518'> +7.3599221e+01 </wgt>
<wgt id='1519'> +7.3586984e+01 </wgt>
<wgt id='1520'> +7.3597830e+01 </wgt>
<wgt id='1521'> +7.3593834e+01 </wgt>
<wgt id='1522'> +7.3627818e+01 </wgt>
<wgt id='1523'> +7.3598651e+01 </wgt>
<wgt id='1524'> +7.3628755e+01 </wgt>
<wgt id='1525'> +7.3597801e+01 </wgt>
<wgt id='1526'> +7.3591739e+01 </wgt>
<wgt id='1527'> +7.3606225e+01 </wgt>
<wgt id='1528'> +7.3579597e+01 </wgt>
<wgt id='1529'> +7.3614391e+01 </wgt>
<wgt id='1530'> +7.3593596e+01 </wgt>
<wgt id='1531'> +7.3598405e+01 </wgt>
<wgt id='1532'> +7.3676338e+01 </wgt>
<wgt id='1533'> +7.3649900e+01 </wgt>
<wgt id='1534'> +7.3626884e+01 </wgt>
<wgt id='1535'> +7.3619627e+01 </wgt>
<wgt id='1536'> +7.3578890e+01 </wgt>
<wgt id='1537'> +7.3629628e+01 </wgt>
<wgt id='1538'> +7.3597936e+01 </wgt>
<wgt id='1539'> +7.3555348e+01 </wgt>
<wgt id='1540'> +7.3597182e+01 </wgt>
<wgt id='1541'> +7.3624476e+01 </wgt>
<wgt id='1542'> +7.3636265e+01 </wgt>
<wgt id='1543'> +7.3553123e+01 </wgt>
<wgt id='1544'> +7.3633257e+01 </wgt>
<wgt id='1545'> +7.3645308e+01 </wgt>
<wgt id='1546'> +7.3597554e+01 </wgt>
<wgt id='1547'> +7.3582418e+01 </wgt>
<wgt id='1548'> +7.3629483e+01 </wgt>
<wgt id='1549'> +7.3631491e+01 </wgt>
<wgt id='1550'> +7.3646902e+01 </wgt>
<wgt id='1551'> +7.3611352e+01 </wgt>
<wgt id='1552'> +7.3687745e+01 </wgt>
<wgt id='1553'> +7.3637936e+01 </wgt>
<wgt id='1554'> +7.3618240e+01 </wgt>
<wgt id='1555'> +7.3628634e+01 </wgt>
<wgt id='1556'> +7.3604336e+01 </wgt>
<wgt id='1557'> +7.3563830e+01 </wgt>
<wgt id='1558'> +7.3608445e+01 </wgt>
<wgt id='1559'> +7.3594215e+01 </wgt>
<wgt id='1560'> +7.3589302e+01 </wgt>
<wgt id='1561'> +7.3596409e+01 </wgt>
<wgt id='1562'> +7.3576282e+01 </wgt>
<wgt id='1563'> +7.3643309e+01 </wgt>
<wgt id='1564'> +7.3619901e+01 </wgt>
<wgt id='1565'> +7.3635850e+01 </wgt>
<wgt id='1566'> +7.3618985e+01 </wgt>
<wgt id='1567'> +7.1280455e+01 </wgt>
<wgt id='1568'> +7.5871321e+01 </wgt>
<wgt id='1569'> +7.6071729e+01 </wgt>
<wgt id='1570'> +7.5683490e+01 </wgt>
<wgt id='1571'> +7.6456248e+01 </wgt>
<wgt id='1572'> +7.5300328e+01 </wgt>
<wgt id='1573'> +7.5894370e+01 </wgt>
<wgt id='1574'> +7.6538276e+01 </wgt>
<wgt id='1575'> +7.6120002e+01 </wgt>
<wgt id='1576'> +7.6121894e+01 </wgt>
<wgt id='1577'> +7.6152691e+01 </wgt>
<wgt id='1578'> +7.6064834e+01 </wgt>
<wgt id='1579'> +7.5529574e+01 </wgt>
<wgt id='1580'> +7.7494296e+01 </wgt>
<wgt id='1581'> +7.5814493e+01 </wgt>
<wgt id='1582'> +7.4993757e+01 </wgt>
<wgt id='1583'> +7.5524122e+01 </wgt>
<wgt id='1584'> +7.5490824e+01 </wgt>
<wgt id='1585'> +7.7406774e+01 </wgt>
<wgt id='1586'> +7.5408077e+01 </wgt>
<wgt id='1587'> +7.5874485e+01 </wgt>
<wgt id='1588'> +7.6300769e+01 </wgt>
<wgt id='1589'> +7.6994305e+01 </wgt>
<wgt id='1590'> +7.6037379e+01 </wgt>
<wgt id='1591'> +7.6229128e+01 </wgt>
<wgt id='1592'> +7.5729920e+01 </wgt>
<wgt id='1593'> +7.5716737e+01 </wgt>
<wgt id='1594'> +7.5891563e+01 </wgt>
<wgt id='1595'> +7.5846478e+01 </wgt>
<wgt id='1596'> +7.6286860e+01 </wgt>
<wgt id='1597'> +7.6249974e+01 </wgt>
<wgt id='1598'> +7.6088092e+01 </wgt>
<wgt id='1599'> +7.6070500e+01 </wgt>
<wgt id='1600'> +7.6267200e+01 </wgt>
<wgt id='1601'> +7.6040359e+01 </wgt>
<wgt id='1602'> +7.6081171e+01 </wgt>
<wgt id='1603'> +7.6069781e+01 </wgt>
<wgt id='1604'> +7.6141450e+01 </wgt>
<wgt id='1605'> +7.6086821e+01 </wgt>
<wgt id='1606'> +7.6155268e+01 </wgt>
<wgt id='1607'> +7.6064285e+01 </wgt>
<wgt id='1608'> +7.5973636e+01 </wgt>
<wgt id='1609'> +7.5986640e+01 </wgt>
<wgt id='1610'> +7.5986000e+01 </wgt>
<wgt id='1611'> +7.6016355e+01 </wgt>
<wgt id='1612'> +7.6110803e+01 </wgt>
<wgt id='1613'> +7.6060477e+01 </wgt>
<wgt id='1614'> +7.6023375e+01 </wgt>
<wgt id='1615'> +7.6034262e+01 </wgt>
<wgt id='1616'> +7.6006426e+01 </wgt>
<wgt id='1617'> +7.6141965e+01 </wgt>
<wgt id='1618'> +7.6013593e+01 </wgt>
<wgt id='1619'> +7.6102021e+01 </wgt>
<wgt id='1620'> +7.6087626e+01 </wgt>
<wgt id='1621'> +7.6089361e+01 </wgt>
<wgt id='1622'> +7.6094268e+01 </wgt>
<wgt id='1623'> +7.6072927e+01 </wgt>
<wgt id='1624'> +7.6082815e+01 </wgt>
<wgt id='1625'> +7.6055286e+01 </wgt>
<wgt id='1626'> +7.6070442e+01 </wgt>
<wgt id='1627'> +7.6087867e+01 </wgt>
<wgt id='1628'> +7.6083898e+01 </wgt>
<wgt id='1629'> +7.6100610e+01 </wgt>
<wgt id='1630'> +7.6096233e+01 </wgt>
<wgt id='1631'> +7.6069969e+01 </wgt>
<wgt id='1632'> +7.6061066e+01 </wgt>
<wgt id='1633'> +7.6090600e+01 </wgt>
<wgt id='1634'> +7.6054601e+01 </wgt>
<wgt id='1635'> +7.6063379e+01 </wgt>
<wgt id='1636'> +7.6055054e+01 </wgt>
<wgt id='1637'> +7.6089133e+01 </wgt>
<wgt id='1638'> +7.6073383e+01 </wgt>
<wgt id='1639'> +7.6051559e+01 </wgt>
<wgt id='1640'> +7.6131818e+01 </wgt>
<wgt id='1641'> +7.6091258e+01 </wgt>
<wgt id='1642'> +7.6034704e+01 </wgt>
<wgt id='1643'> +7.6080915e+01 </wgt>
<wgt id='1644'> +7.6076430e+01 </wgt>
<wgt id='1645'> +7.6117490e+01 </wgt>
<wgt id='1646'> +7.6090649e+01 </wgt>
<wgt id='1647'> +7.6109774e+01 </wgt>
<wgt id='1648'> +7.6065339e+01 </wgt>
<wgt id='1649'> +7.6068892e+01 </wgt>
<wgt id='1650'> +7.6112741e+01 </wgt>
<wgt id='1651'> +7.6101405e+01 </wgt>
<wgt id='1652'> +7.6052568e+01 </wgt>
<wgt id='1653'> +7.6035226e+01 </wgt>
<wgt id='1654'> +7.6064899e+01 </wgt>
<wgt id='1655'> +7.6127128e+01 </wgt>
<wgt id='1656'> +7.6016759e+01 </wgt>
<wgt id='1657'> +7.6032615e+01 </wgt>
<wgt id='1658'> +7.6031107e+01 </wgt>
<wgt id='1659'> +7.6069595e+01 </wgt>
<wgt id='1660'> +7.6036615e+01 </wgt>
<wgt id='1661'> +7.6042327e+01 </wgt>
<wgt id='1662'> +7.6070058e+01 </wgt>
<wgt id='1663'> +7.6029792e+01 </wgt>
<wgt id='1664'> +7.6081093e+01 </wgt>
<wgt id='1665'> +7.6072771e+01 </wgt>
<wgt id='1666'> +7.6084581e+01 </wgt>
<wgt id='1667'> +7.6061514e+01 </wgt>
<wgt id='1668'> +7.6068083e+01 </wgt>
<wgt id='1669'> +7.6079506e+01 </wgt>
<wgt id='1670'> +7.3805389e+01 </wgt>
<wgt id='1671'> +7.8137801e+01 </wgt>
<wgt id='1672'> +7.3634501e+01 </wgt>
<wgt id='1673'> +7.3688468e+01 </wgt>
<wgt id='1674'> +7.2559772e+01 </wgt>
<wgt id='1675'> +7.3593624e+01 </wgt>
<wgt id='1676'> +7.2434000e+01 </wgt>
<wgt id='1677'> +7.5164853e+01 </wgt>
<wgt id='1678'> +7.2986400e+01 </wgt>
<wgt id='1679'> +7.3635171e+01 </wgt>
<wgt id='1680'> +7.4048226e+01 </wgt>
<wgt id='1681'> +7.3323144e+01 </wgt>
<wgt id='1682'> +7.3851040e+01 </wgt>
<wgt id='1683'> +7.3295377e+01 </wgt>
<wgt id='1684'> +7.3704003e+01 </wgt>
<wgt id='1685'> +7.3698984e+01 </wgt>
<wgt id='1686'> +7.3477757e+01 </wgt>
<wgt id='1687'> +7.3796577e+01 </wgt>
<wgt id='1688'> +7.3406875e+01 </wgt>
<wgt id='1689'> +7.3645090e+01 </wgt>
<wgt id='1690'> +7.3855444e+01 </wgt>
<wgt id='1691'> +7.3660624e+01 </wgt>
<wgt id='1692'> +7.3617796e+01 </wgt>
<wgt id='1693'> +7.3516750e+01 </wgt>
<wgt id='1694'> +7.3384800e+01 </wgt>
<wgt id='1695'> +7.3683626e+01 </wgt>
<wgt id='1696'> +7.3372749e+01 </wgt>
<wgt id='1697'> +7.3583628e+01 </wgt>
<wgt id='1698'> +7.3840985e+01 </wgt>
<wgt id='1699'> +7.3891645e+01 </wgt>
<wgt id='1700'> +7.4453033e+01 </wgt>
<wgt id='1701'> +7.3763088e+01 </wgt>
<wgt id='1702'> +7.3675102e+01 </wgt>
<wgt id='1703'> +7.1280455e+01 </wgt>
<wgt id='1704'> +7.5871321e+01 </wgt>
<wgt id='1705'> +7.6076681e+01 </wgt>
<wgt id='1706'> +7.4522791e+01 </wgt>
<wgt id='1707'> +7.6117671e+01 </wgt>
<wgt id='1708'> +7.5951153e+01 </wgt>
<wgt id='1709'> +7.6294355e+01 </wgt>
<wgt id='1710'> +7.4617199e+01 </wgt>
<wgt id='1711'> +7.5999733e+01 </wgt>
<wgt id='1712'> +7.6133804e+01 </wgt>
<wgt id='1713'> +7.5601451e+01 </wgt>
<wgt id='1714'> +7.5948517e+01 </wgt>
<wgt id='1715'> +7.6078749e+01 </wgt>
<wgt id='1716'> +7.6007987e+01 </wgt>
<wgt id='1717'> +7.6059794e+01 </wgt>
<wgt id='1718'> +7.6127270e+01 </wgt>
<wgt id='1719'> +7.5772144e+01 </wgt>
<wgt id='1720'> +7.5495182e+01 </wgt>
<wgt id='1721'> +7.5720677e+01 </wgt>
<wgt id='1722'> +7.6917611e+01 </wgt>
<wgt id='1723'> +7.5815735e+01 </wgt>
<wgt id='1724'> +7.5991834e+01 </wgt>
<wgt id='1725'> +7.6650770e+01 </wgt>
<wgt id='1726'> +7.6326611e+01 </wgt>
<wgt id='1727'> +7.7599753e+01 </wgt>
<wgt id='1728'> +7.6084871e+01 </wgt>
<wgt id='1729'> +7.6329530e+01 </wgt>
<wgt id='1730'> +7.5953049e+01 </wgt>
<wgt id='1731'> +7.6255373e+01 </wgt>
<wgt id='1732'> +7.6262266e+01 </wgt>
<wgt id='1733'> +7.6428678e+01 </wgt>
<wgt id='1734'> +7.6131881e+01 </wgt>
<wgt id='1735'> +7.6090488e+01 </wgt>
<wgt id='1736'> +7.3805389e+01 </wgt>
<wgt id='1737'> +7.8137801e+01 </wgt>
<wgt id='1738'> +7.1867938e+01 </wgt>
<wgt id='1739'> +7.1725703e+01 </wgt>
<wgt id='1740'> +7.2009771e+01 </wgt>
<wgt id='1741'> +7.2055871e+01 </wgt>
<wgt id='1742'> +7.1680311e+01 </wgt>
<wgt id='1743'> +7.2029096e+01 </wgt>
<wgt id='1744'> +7.1707283e+01 </wgt>
<wgt id='1745'> +7.2275815e+01 </wgt>
<wgt id='1746'> +7.1469706e+01 </wgt>
<wgt id='1747'> +7.1908749e+01 </wgt>
<wgt id='1748'> +7.1831088e+01 </wgt>
<wgt id='1749'> +7.1410256e+01 </wgt>
<wgt id='1750'> +7.2361795e+01 </wgt>
<wgt id='1751'> +7.1516461e+01 </wgt>
<wgt id='1752'> +7.2224476e+01 </wgt>
<wgt id='1753'> +7.1970794e+01 </wgt>
<wgt id='1754'> +7.1634442e+01 </wgt>
<wgt id='1755'> +7.2253017e+01 </wgt>
<wgt id='1756'> +7.1538558e+01 </wgt>
<wgt id='1757'> +7.1753888e+01 </wgt>
<wgt id='1758'> +7.1941911e+01 </wgt>
<wgt id='1759'> +7.2206276e+01 </wgt>
<wgt id='1760'> +7.1457971e+01 </wgt>
<wgt id='1761'> +7.1197070e+01 </wgt>
<wgt id='1762'> +7.2155979e+01 </wgt>
<wgt id='1763'> +7.1811957e+01 </wgt>
<wgt id='1764'> +7.2026153e+01 </wgt>
<wgt id='1765'> +7.2466271e+01 </wgt>
<wgt id='1766'> +7.1376562e+01 </wgt>
<wgt id='1767'> +7.1867938e+01 </wgt>
<wgt id='1768'> +7.1961476e+01 </wgt>
<wgt id='1769'> +7.1655218e+01 </wgt>
<wgt id='1770'> +7.1945542e+01 </wgt>
<wgt id='1771'> +7.1727585e+01 </wgt>
<wgt id='1772'> +7.2087771e+01 </wgt>
<wgt id='1773'> +7.1671608e+01 </wgt>
<wgt id='1774'> +7.1598225e+01 </wgt>
<wgt id='1775'> +7.2150806e+01 </wgt>
<wgt id='1776'> +7.3257834e+01 </wgt>
<wgt id='1777'> +7.0590665e+01 </wgt>
<wgt id='1778'> +7.1629617e+01 </wgt>
<wgt id='1779'> +7.0696691e+01 </wgt>
<wgt id='1780'> +7.1148520e+01 </wgt>
<wgt id='1781'> +7.4002801e+01 </wgt>
<wgt id='1782'> +7.3899294e+01 </wgt>
<wgt id='1783'> +7.4084912e+01 </wgt>
<wgt id='1784'> +7.4078623e+01 </wgt>
<wgt id='1785'> +7.3906036e+01 </wgt>
<wgt id='1786'> +7.4206280e+01 </wgt>
<wgt id='1787'> +7.3778724e+01 </wgt>
<wgt id='1788'> +7.4563508e+01 </wgt>
<wgt id='1789'> +7.3435357e+01 </wgt>
<wgt id='1790'> +7.3781915e+01 </wgt>
<wgt id='1791'> +7.4210705e+01 </wgt>
<wgt id='1792'> +7.4332291e+01 </wgt>
<wgt id='1793'> +7.3655722e+01 </wgt>
<wgt id='1794'> +7.3761649e+01 </wgt>
<wgt id='1795'> +7.4218872e+01 </wgt>
<wgt id='1796'> +7.3865317e+01 </wgt>
<wgt id='1797'> +7.3968916e+01 </wgt>
<wgt id='1798'> +7.4012089e+01 </wgt>
<wgt id='1799'> +7.3961579e+01 </wgt>
<wgt id='1800'> +7.3840862e+01 </wgt>
<wgt id='1801'> +7.4146862e+01 </wgt>
<wgt id='1802'> +7.3535749e+01 </wgt>
<wgt id='1803'> +7.4342142e+01 </wgt>
<wgt id='1804'> +7.3768503e+01 </wgt>
<wgt id='1805'> +7.4198372e+01 </wgt>
<wgt id='1806'> +7.3165810e+01 </wgt>
<wgt id='1807'> +7.4588613e+01 </wgt>
<wgt id='1808'> +7.3749106e+01 </wgt>
<wgt id='1809'> +7.4348001e+01 </wgt>
<wgt id='1810'> +7.3940813e+01 </wgt>
<wgt id='1811'> +7.4052111e+01 </wgt>
<wgt id='1812'> +7.3503393e+01 </wgt>
<wgt id='1813'> +7.3992684e+01 </wgt>
<wgt id='1814'> +7.3835990e+01 </wgt>
<wgt id='1815'> +7.3099671e+01 </wgt>
<wgt id='1816'> +7.3588345e+01 </wgt>
<wgt id='1817'> +7.3621845e+01 </wgt>
<wgt id='1818'> +7.4505514e+01 </wgt>
<wgt id='1819'> +7.5189648e+01 </wgt>
<wgt id='1820'> +7.1669318e+01 </wgt>
<wgt id='1821'> +7.3606553e+01 </wgt>
<wgt id='1822'> +7.3484973e+01 </wgt>
<wgt id='1823'> +7.3770263e+01 </wgt>
<wgt id='1824'> +7.2095275e+01 </wgt>
<wgt id='1825'> +7.2088196e+01 </wgt>
<wgt id='1826'> +7.2081170e+01 </wgt>
<wgt id='1827'> +7.2074055e+01 </wgt>
<wgt id='1828'> +7.2067084e+01 </wgt>
<wgt id='1829'> +7.2059962e+01 </wgt>
<wgt id='1830'> +7.2053050e+01 </wgt>
<wgt id='1831'> +7.2046074e+01 </wgt>
<wgt id='1832'> +7.2038977e+01 </wgt>
<wgt id='1833'> +7.2031961e+01 </wgt>
<wgt id='1834'> +7.2024734e+01 </wgt>
<wgt id='1835'> +7.2017774e+01 </wgt>
<wgt id='1836'> +7.2010677e+01 </wgt>
<wgt id='1837'> +7.2003539e+01 </wgt>
<wgt id='1838'> +7.1996579e+01 </wgt>
<wgt id='1839'> +7.1989444e+01 </wgt>
<wgt id='1840'> +7.1982511e+01 </wgt>
<wgt id='1841'> +7.1975376e+01 </wgt>
<wgt id='1842'> +7.1968418e+01 </wgt>
<wgt id='1843'> +7.1961264e+01 </wgt>
<wgt id='1844'> +7.1954317e+01 </wgt>
<wgt id='1845'> +7.1947224e+01 </wgt>
<wgt id='1846'> +7.1940122e+01 </wgt>
<wgt id='1847'> +7.1933136e+01 </wgt>
<wgt id='1848'> +7.1926009e+01 </wgt>
<wgt id='1849'> +7.1919025e+01 </wgt>
<wgt id='1850'> +7.1911960e+01 </wgt>
<wgt id='1851'> +7.1904990e+01 </wgt>
<wgt id='1852'> +7.1897865e+01 </wgt>
<wgt id='1853'> +7.1890751e+01 </wgt>
<wgt id='1854'> +7.1883662e+01 </wgt>
<wgt id='1855'> +7.5333497e+01 </wgt>
<wgt id='1856'> +7.4939390e+01 </wgt>
<wgt id='1857'> +7.5713553e+01 </wgt>
<wgt id='1858'> +7.4568395e+01 </wgt>
<wgt id='1859'> +7.5155640e+01 </wgt>
<wgt id='1860'> +7.5796103e+01 </wgt>
<wgt id='1861'> +7.5386793e+01 </wgt>
<wgt id='1862'> +7.5388474e+01 </wgt>
<wgt id='1863'> +7.5413218e+01 </wgt>
<wgt id='1864'> +7.5327357e+01 </wgt>
<wgt id='1865'> +7.4792297e+01 </wgt>
<wgt id='1866'> +7.6754161e+01 </wgt>
<wgt id='1867'> +7.5084063e+01 </wgt>
<wgt id='1868'> +7.4265775e+01 </wgt>
<wgt id='1869'> +7.4790744e+01 </wgt>
<wgt id='1870'> +7.4746567e+01 </wgt>
<wgt id='1871'> +7.6668293e+01 </wgt>
<wgt id='1872'> +7.4670847e+01 </wgt>
<wgt id='1873'> +7.5135640e+01 </wgt>
<wgt id='1874'> +7.5567019e+01 </wgt>
<wgt id='1875'> +7.6253454e+01 </wgt>
<wgt id='1876'> +7.5293127e+01 </wgt>
<wgt id='1877'> +7.5489470e+01 </wgt>
<wgt id='1878'> +7.4993138e+01 </wgt>
<wgt id='1879'> +7.4976678e+01 </wgt>
<wgt id='1880'> +7.5149026e+01 </wgt>
<wgt id='1881'> +7.5103648e+01 </wgt>
<wgt id='1882'> +7.5552728e+01 </wgt>
<wgt id='1883'> +7.5512954e+01 </wgt>
<wgt id='1884'> +7.5347983e+01 </wgt>
<wgt id='1885'> +7.5328781e+01 </wgt>
<wgt id='1886'> +7.5532627e+01 </wgt>
<wgt id='1887'> +7.5300056e+01 </wgt>
<wgt id='1888'> +7.5340682e+01 </wgt>
<wgt id='1889'> +7.5332284e+01 </wgt>
<wgt id='1890'> +7.5401618e+01 </wgt>
<wgt id='1891'> +7.5349156e+01 </wgt>
<wgt id='1892'> +7.5416156e+01 </wgt>
<wgt id='1893'> +7.5325578e+01 </wgt>
<wgt id='1894'> +7.5233084e+01 </wgt>
<wgt id='1895'> +7.5248976e+01 </wgt>
<wgt id='1896'> +7.5247578e+01 </wgt>
<wgt id='1897'> +7.5278127e+01 </wgt>
<wgt id='1898'> +7.5374689e+01 </wgt>
<wgt id='1899'> +7.5321829e+01 </wgt>
<wgt id='1900'> +7.5284866e+01 </wgt>
<wgt id='1901'> +7.5297861e+01 </wgt>
<wgt id='1902'> +7.5268048e+01 </wgt>
<wgt id='1903'> +7.5404150e+01 </wgt>
<wgt id='1904'> +7.5275499e+01 </wgt>
<wgt id='1905'> +7.5363966e+01 </wgt>
<wgt id='1906'> +7.5348639e+01 </wgt>
<wgt id='1907'> +7.5350796e+01 </wgt>
<wgt id='1908'> +7.5355647e+01 </wgt>
<wgt id='1909'> +7.5335480e+01 </wgt>
<wgt id='1910'> +7.5345418e+01 </wgt>
<wgt id='1911'> +7.5315014e+01 </wgt>
<wgt id='1912'> +7.5332622e+01 </wgt>
<wgt id='1913'> +7.5350828e+01 </wgt>
<wgt id='1914'> +7.5346363e+01 </wgt>
<wgt id='1915'> +7.5363080e+01 </wgt>
<wgt id='1916'> +7.5358002e+01 </wgt>
<wgt id='1917'> +7.5331277e+01 </wgt>
<wgt id='1918'> +7.5321718e+01 </wgt>
<wgt id='1919'> +7.5353297e+01 </wgt>
<wgt id='1920'> +7.5315828e+01 </wgt>
<wgt id='1921'> +7.5324770e+01 </wgt>
<wgt id='1922'> +7.5315742e+01 </wgt>
<wgt id='1923'> +7.5350837e+01 </wgt>
<wgt id='1924'> +7.5334239e+01 </wgt>
<wgt id='1925'> +7.5313062e+01 </wgt>
<wgt id='1926'> +7.5393578e+01 </wgt>
<wgt id='1927'> +7.5352176e+01 </wgt>
<wgt id='1928'> +7.5296166e+01 </wgt>
<wgt id='1929'> +7.5342767e+01 </wgt>
<wgt id='1930'> +7.5338606e+01 </wgt>
<wgt id='1931'> +7.5379981e+01 </wgt>
<wgt id='1932'> +7.5352534e+01 </wgt>
<wgt id='1933'> +7.5371853e+01 </wgt>
<wgt id='1934'> +7.5327028e+01 </wgt>
<wgt id='1935'> +7.5329800e+01 </wgt>
<wgt id='1936'> +7.5375387e+01 </wgt>
<wgt id='1937'> +7.5363206e+01 </wgt>
<wgt id='1938'> +7.5314596e+01 </wgt>
<wgt id='1939'> +7.5296886e+01 </wgt>
<wgt id='1940'> +7.5326867e+01 </wgt>
<wgt id='1941'> +7.5389924e+01 </wgt>
<wgt id='1942'> +7.5278590e+01 </wgt>
<wgt id='1943'> +7.5293931e+01 </wgt>
<wgt id='1944'> +7.5292706e+01 </wgt>
<wgt id='1945'> +7.5330906e+01 </wgt>
<wgt id='1946'> +7.5297804e+01 </wgt>
<wgt id='1947'> +7.5303531e+01 </wgt>
<wgt id='1948'> +7.5332047e+01 </wgt>
<wgt id='1949'> +7.5290864e+01 </wgt>
<wgt id='1950'> +7.5342815e+01 </wgt>
<wgt id='1951'> +7.5335038e+01 </wgt>
<wgt id='1952'> +7.5346375e+01 </wgt>
<wgt id='1953'> +7.5322935e+01 </wgt>
<wgt id='1954'> +7.5330258e+01 </wgt>
<wgt id='1955'> +7.5341570e+01 </wgt>
<wgt id='1956'> +7.5332800e+01 </wgt>
<wgt id='1957'> +7.5337245e+01 </wgt>
<wgt id='1958'> +7.5334219e+01 </wgt>
<wgt id='1959'> +7.5334341e+01 </wgt>
<wgt id='1960'> +7.5335606e+01 </wgt>
<wgt id='1961'> +7.5333801e+01 </wgt>
<wgt id='1962'> +7.5338047e+01 </wgt>
</rwgt>
</event>
<event npLO=" -1 " npNLO=" 1 ">
 8      1 +1.5146096e+02 7.33586360e+01 7.54677110e-03 1.20828130e-01
        1 -1    0    0  502    0 +0.0000000000e+00 +0.0000000000e+00 +8.8437925000e+01 8.8437925000e+01 0.0000000000e+00 0.0000e+00 9.0000e+00
       -1 -1    0    0    0  501 -0.0000000000e+00 -0.0000000000e+00 -2.2977288000e+02 2.2977288000e+02 0.0000000000e+00 0.0000e+00 9.0000e+00
       23  2    1    2    0    0 -4.6803386000e+01 +6.1659082000e+01 -1.9147038000e+02 2.2540917000e+02 9.0310505000e+01 0.0000e+00 0.0000e+00
       13  1    3    3    0    0 -3.6947787000e+01 +5.9159875000e+01 -8.0555164000e+01 1.0655592000e+02 0.0000000000e+00 0.0000e+00 9.0000e+00
      -13  1    3    3    0    0 +1.2029073000e-01 -1.5154999000e+01 -8.2873850000e+01 8.4248225000e+01 0.0000000000e+00 0.0000e+00 9.0000e+00
       22  1    3    3    0    0 -9.9758900000e+00 +1.7654206000e+01 -2.8041368000e+01 3.4605024000e+01 0.0000000000e+00 0.0000e+00 9.0000e+00
       21  1    1    2  503  501 +2.8499721000e+01 -3.8275450000e+01 +2.4869312000e+01 5.3811958000e+01 0.0000000000e+00 0.0000e+00 9.0000e+00
       21  1    1    2  502  503 +1.8303665000e+01 -2.3383633000e+01 +2.5266114000e+01 3.8989677000e+01 0.0000000000e+00 0.0000e+00 9.0000e+00
#aMCatNLO 2  0  0  6  1 0.51103583E+01 0.00000000E+00 -9  7  0 0.00000000E+00 0.00000000E+00 0.00000000E+00 0.00000000E+00 0.00000000E+00
<rwgt>
<wgt id='1001'> +1.5146000e+02 </wgt>
<wgt id='1002'> +1.5146000e+02 </wgt>
<wgt id='1003'> +1.3889000e+02 </wgt>
<wgt id='1004'> +1.5444000e+02 </wgt>
<wgt id='1005'> +1.5011000e+02 </wgt>
<wgt id='1006'> +1.5410000e+02 </wgt>
<wgt id='1007'> +1.4621000e+02 </wgt>
<wgt id='1008'> +1.4191000e+02 </wgt>
<wgt id='1009'> +1.5208000e+02 </wgt>
<wgt id='1010'> +1.4826000e+02 </wgt>
<wgt id='1011'> +1.5410000e+02 </wgt>
<wgt id='1012'> +1.5310000e+02 </wgt>
<wgt id='1013'> +1.4970000e+02 </wgt>
<wgt id='1014'> +1.5285000e+02 </wgt>
<wgt id='1015'> +1.5355000e+02 </wgt>
<wgt id='1016'> +1.5377000e+02 </wgt>
<wgt id='1017'> +1.5037000e+02 </wgt>
<wgt id='1018'> +1.5444000e+02 </wgt>
<wgt id='1019'> +1.4673000e+02 </wgt>
<wgt id='1020'> +1.4425000e+02 </wgt>
<wgt id='1021'> +1.5320000e+02 </wgt>
<wgt id='1022'> +1.6001000e+02 </wgt>
<wgt id='1023'> +1.5823000e+02 </wgt>
<wgt id='1024'> +1.5055000e+02 </wgt>
<wgt id='1025'> +1.5789000e+02 </wgt>
<wgt id='1026'> +1.6047000e+02 </wgt>
<wgt id='1027'> +1.5645000e+02 </wgt>
<wgt id='1028'> +1.5015000e+02 </wgt>
<wgt id='1029'> +1.5142000e+02 </wgt>
<wgt id='1030'> +1.5456000e+02 </wgt>
<wgt id='1031'> +1.4915000e+02 </wgt>
<wgt id='1032'> +1.5374000e+02 </wgt>
<wgt id='1033'> +1.5825000e+02 </wgt>
<wgt id='1034'> +1.5083000e+02 </wgt>
<wgt id='1035'> +1.5437000e+02 </wgt>
<wgt id='1036'> +1.5213000e+02 </wgt>
<wgt id='1037'> +1.5734000e+02 </wgt>
<wgt id='1038'> +1.5067000e+02 </wgt>
<wgt id='1039'> +1.5138000e+02 </wgt>
<wgt id='1040'> +1.4809000e+02 </wgt>
<wgt id='1041'> +1.4409000e+02 </wgt>
<wgt id='1042'> +1.5438000e+02 </wgt>
<wgt id='1043'> +1.4992000e+02 </wgt>
<wgt id='1044'> +1.5306000e+02 </wgt>
<wgt id='1045'> +1.5186000e+02 </wgt>
<wgt id='1046'> +1.4914000e+02 </wgt>
<wgt id='1047'> +1.5170000e+02 </wgt>
<wgt id='1048'> +1.4670000e+02 </wgt>
<wgt id='1049'> +1.4785000e+02 </wgt>
<wgt id='1050'> +1.5094000e+02 </wgt>
<wgt id='1051'> +1.5483000e+02 </wgt>
<wgt id='1052'> +1.5300000e+02 </wgt>
<wgt id='1053'> +1.5156000e+02 </wgt>
<wgt id='1054'> +1.4983000e+02 </wgt>
<wgt id='1055'> +1.5479000e+02 </wgt>
<wgt id='1056'> +1.5279000e+02 </wgt>
<wgt id='1057'> +1.5424000e+02 </wgt>
<wgt id='1058'> +1.4351000e+02 </wgt>
<wgt id='1059'> +1.4663000e+02 </wgt>
<wgt id='1060'> +1.4911000e+02 </wgt>
<wgt id='1061'> +1.5488000e+02 </wgt>
<wgt id='1062'> +1.5351000e+02 </wgt>
<wgt id='1063'> +1.5145000e+02 </wgt>
<wgt id='1064'> +1.5448000e+02 </wgt>
<wgt id='1065'> +1.5808000e+02 </wgt>
<wgt id='1066'> +1.4323000e+02 </wgt>
<wgt id='1067'> +1.5606000e+02 </wgt>
<wgt id='1068'> +1.5433000e+02 </wgt>
<wgt id='1069'> +1.4319000e+02 </wgt>
<wgt id='1070'> +1.5137000e+02 </wgt>
<wgt id='1071'> +1.5336000e+02 </wgt>
<wgt id='1072'> +1.5547000e+02 </wgt>
<wgt id='1073'> +1.4985000e+02 </wgt>
<wgt id='1074'> +1.4977000e+02 </wgt>
<wgt id='1075'> +1.4049000e+02 </wgt>
<wgt id='1076'> +1.5394000e+02 </wgt>
<wgt id='1077'> +1.5302000e+02 </wgt>
<wgt id='1078'> +1.5109000e+02 </wgt>
<wgt id='1079'> +1.5167000e+02 </wgt>
<wgt id='1080'> +1.5160000e+02 </wgt>
<wgt id='1081'> +1.4958000e+02 </wgt>
<wgt id='1082'> +1.5601000e+02 </wgt>
<wgt id='1083'> +1.5411000e+02 </wgt>
<wgt id='1084'> +1.5680000e+02 </wgt>
<wgt id='1085'> +1.4297000e+02 </wgt>
<wgt id='1086'> +1.5251000e+02 </wgt>
<wgt id='1087'> +1.5339000e+02 </wgt>
<wgt id='1088'> +1.5119000e+02 </wgt>
<wgt id='1089'> +1.5064000e+02 </wgt>
<wgt id='1090'> +1.4848000e+02 </wgt>
<wgt id='1091'> +1.5152000e+02 </wgt>
<wgt id='1092'> +1.5691000e+02 </wgt>
<wgt id='1093'> +1.5374000e+02 </wgt>
<wgt id='1094'> +1.5504000e+02 </wgt>
<wgt id='1095'> +1.5063000e+02 </wgt>
<wgt id='1096'> +1.4927000e+02 </wgt>
<wgt id='1097'> +1.4085000e+02 </wgt>
<wgt id='1098'> +1.4966000e+02 </wgt>
<wgt id='1099'> +1.5864000e+02 </wgt>
<wgt id='1100'> +1.5207000e+02 </wgt>
<wgt id='1101'> +1.5236000e+02 </wgt>
<wgt id='1102'> +1.4094000e+02 </wgt>
<wgt id='1103'> +1.4877000e+02 </wgt>
<wgt id='1104'> +1.5396000e+02 </wgt>
<wgt id='1105'> +1.5146096e+02 </wgt>
<wgt id='1106'> +6.1807786e+01 </wgt>
<wgt id='1107'> +9.5045613e+01 </wgt>
<wgt id='1108'> +7.8629112e+01 </wgt>
<wgt id='1109'> +6.4173519e+01 </wgt>
<wgt id='1110'> +9.8683546e+01 </wgt>
<wgt id='1111'> +7.1984198e+01 </wgt>
<wgt id='1112'> +5.8750241e+01 </wgt>
<wgt id='1113'> +9.0343839e+01 </wgt>
<wgt id='1114'> +8.0634538e+01 </wgt>
<wgt id='1115'> +9.4129649e+01 </wgt>
<wgt id='1116'> +8.0440227e+01 </wgt>
<wgt id='1117'> +7.9898902e+01 </wgt>
<wgt id='1118'> +8.1387459e+01 </wgt>
<wgt id='1119'> +7.8536816e+01 </wgt>
<wgt id='1120'> +8.3880354e+01 </wgt>
<wgt id='1121'> +8.1162749e+01 </wgt>
<wgt id='1122'> +7.7008875e+01 </wgt>
<wgt id='1123'> +7.7148769e+01 </wgt>
<wgt id='1124'> +8.0209589e+01 </wgt>
<wgt id='1125'> +8.0065292e+01 </wgt>
<wgt id='1126'> +7.7950263e+01 </wgt>
<wgt id='1127'> +7.9461845e+01 </wgt>
<wgt id='1128'> +7.8742695e+01 </wgt>
<wgt id='1129'> +8.0423675e+01 </wgt>
<wgt id='1130'> +7.9804700e+01 </wgt>
<wgt id='1131'> +8.4878238e+01 </wgt>
<wgt id='1132'> +8.0401162e+01 </wgt>
<wgt id='1133'> +8.1618689e+01 </wgt>
<wgt id='1134'> +7.5961817e+01 </wgt>
<wgt id='1135'> +7.9497794e+01 </wgt>
<wgt id='1136'> +8.3680648e+01 </wgt>
<wgt id='1137'> +8.4450634e+01 </wgt>
<wgt id='1138'> +7.9811712e+01 </wgt>
<wgt id='1139'> +7.6241296e+01 </wgt>
<wgt id='1140'> +7.9999312e+01 </wgt>
<wgt id='1141'> +9.0337205e+01 </wgt>
<wgt id='1142'> +8.0677464e+01 </wgt>
<wgt id='1143'> +8.0799968e+01 </wgt>
<wgt id='1144'> +8.1274002e+01 </wgt>
<wgt id='1145'> +8.3018227e+01 </wgt>
<wgt id='1146'> +7.8756773e+01 </wgt>
<wgt id='1147'> +8.6025529e+01 </wgt>
<wgt id='1148'> +7.7258754e+01 </wgt>
<wgt id='1149'> +8.3126778e+01 </wgt>
<wgt id='1150'> +7.9480889e+01 </wgt>
<wgt id='1151'> +8.2413352e+01 </wgt>
<wgt id='1152'> +7.8799338e+01 </wgt>
<wgt id='1153'> +7.8195317e+01 </wgt>
<wgt id='1154'> +7.8419943e+01 </wgt>
<wgt id='1155'> +8.0968283e+01 </wgt>
<wgt id='1156'> +8.0664441e+01 </wgt>
<wgt id='1157'> +8.6075204e+01 </wgt>
<wgt id='1158'> +8.3213431e+01 </wgt>
<wgt id='1159'> +8.2054432e+01 </wgt>
<wgt id='1160'> +8.1918743e+01 </wgt>
<wgt id='1161'> +7.9318887e+01 </wgt>
<wgt id='1162'> +7.7096492e+01 </wgt>
<wgt id='1163'> +8.1032903e+01 </wgt>
<wgt id='1164'> +8.3177849e+01 </wgt>
<wgt id='1165'> +8.0934490e+01 </wgt>
<wgt id='1166'> +7.9026825e+01 </wgt>
<wgt id='1167'> +7.9568014e+01 </wgt>
<wgt id='1168'> +8.6351157e+01 </wgt>
<wgt id='1169'> +8.2665491e+01 </wgt>
<wgt id='1170'> +8.2726656e+01 </wgt>
<wgt id='1171'> +8.5368458e+01 </wgt>
<wgt id='1172'> +7.9436705e+01 </wgt>
<wgt id='1173'> +7.7675861e+01 </wgt>
<wgt id='1174'> +8.3401384e+01 </wgt>
<wgt id='1175'> +8.2415074e+01 </wgt>
<wgt id='1176'> +8.1157428e+01 </wgt>
<wgt id='1177'> +8.1945755e+01 </wgt>
<wgt id='1178'> +7.8983215e+01 </wgt>
<wgt id='1179'> +8.3403712e+01 </wgt>
<wgt id='1180'> +7.6832280e+01 </wgt>
<wgt id='1181'> +8.6193996e+01 </wgt>
<wgt id='1182'> +8.1192031e+01 </wgt>
<wgt id='1183'> +7.8704716e+01 </wgt>
<wgt id='1184'> +7.9664724e+01 </wgt>
<wgt id='1185'> +8.1066958e+01 </wgt>
<wgt id='1186'> +8.0817249e+01 </wgt>
<wgt id='1187'> +7.3365524e+01 </wgt>
<wgt id='1188'> +7.6793434e+01 </wgt>
<wgt id='1189'> +7.4743719e+01 </wgt>
<wgt id='1190'> +8.4124601e+01 </wgt>
<wgt id='1191'> +7.9504249e+01 </wgt>
<wgt id='1192'> +8.0181693e+01 </wgt>
<wgt id='1193'> +7.8202917e+01 </wgt>
<wgt id='1194'> +8.2109630e+01 </wgt>
<wgt id='1195'> +8.2715718e+01 </wgt>
<wgt id='1196'> +7.9804700e+01 </wgt>
<wgt id='1197'> +8.0282459e+01 </wgt>
<wgt id='1198'> +7.8451411e+01 </wgt>
<wgt id='1199'> +7.8854280e+01 </wgt>
<wgt id='1200'> +8.4386906e+01 </wgt>
<wgt id='1201'> +7.9101833e+01 </wgt>
<wgt id='1202'> +8.4565265e+01 </wgt>
<wgt id='1203'> +6.7232639e+01 </wgt>
<wgt id='1204'> +7.9496765e+01 </wgt>
<wgt id='1205'> +8.1740243e+01 </wgt>
<wgt id='1206'> +7.2387319e+01 </wgt>
<wgt id='1207'> +7.6783632e+01 </wgt>
<wgt id='1208'> +8.3406543e+01 </wgt>
<wgt id='1209'> +8.2634351e+01 </wgt>
<wgt id='1210'> +7.8956332e+01 </wgt>
<wgt id='1211'> +8.4238429e+01 </wgt>
<wgt id='1212'> +8.0508565e+01 </wgt>
<wgt id='1213'> +7.7678419e+01 </wgt>
<wgt id='1214'> +8.2566884e+01 </wgt>
<wgt id='1215'> +7.6241765e+01 </wgt>
<wgt id='1216'> +8.0557079e+01 </wgt>
<wgt id='1217'> +8.0443058e+01 </wgt>
<wgt id='1218'> +8.0678458e+01 </wgt>
<wgt id='1219'> +8.0465351e+01 </wgt>
<wgt id='1220'> +8.0930699e+01 </wgt>
<wgt id='1221'> +8.0553136e+01 </wgt>
<wgt id='1222'> +8.0285139e+01 </wgt>
<wgt id='1223'> +8.0591114e+01 </wgt>
<wgt id='1224'> +8.0498935e+01 </wgt>
<wgt id='1225'> +8.0785839e+01 </wgt>
<wgt id='1226'> +7.9890383e+01 </wgt>
<wgt id='1227'> +8.0477654e+01 </wgt>
<wgt id='1228'> +8.0690245e+01 </wgt>
<wgt id='1229'> +8.0819806e+01 </wgt>
<wgt id='1230'> +8.1058945e+01 </wgt>
<wgt id='1231'> +7.9940593e+01 </wgt>
<wgt id='1232'> +8.1235755e+01 </wgt>
<wgt id='1233'> +8.0160877e+01 </wgt>
<wgt id='1234'> +8.0779153e+01 </wgt>
<wgt id='1235'> +8.0350239e+01 </wgt>
<wgt id='1236'> +8.0053248e+01 </wgt>
<wgt id='1237'> +8.1450055e+01 </wgt>
<wgt id='1238'> +8.0644254e+01 </wgt>
<wgt id='1239'> +8.0554779e+01 </wgt>
<wgt id='1240'> +8.1204079e+01 </wgt>
<wgt id='1241'> +8.0055154e+01 </wgt>
<wgt id='1242'> +8.0495526e+01 </wgt>
<wgt id='1243'> +8.0512434e+01 </wgt>
<wgt id='1244'> +8.0474269e+01 </wgt>
<wgt id='1245'> +8.1148042e+01 </wgt>
<wgt id='1246'> +8.0954188e+01 </wgt>
<wgt id='1247'> +8.0545330e+01 </wgt>
<wgt id='1248'> +8.0251781e+01 </wgt>
<wgt id='1249'> +8.0737705e+01 </wgt>
<wgt id='1250'> +8.0270581e+01 </wgt>
<wgt id='1251'> +8.0214745e+01 </wgt>
<wgt id='1252'> +7.9806028e+01 </wgt>
<wgt id='1253'> +8.0299211e+01 </wgt>
<wgt id='1254'> +7.9820351e+01 </wgt>
<wgt id='1255'> +8.0451048e+01 </wgt>
<wgt id='1256'> +8.0483477e+01 </wgt>
<wgt id='1257'> +8.0024209e+01 </wgt>
<wgt id='1258'> +8.0360463e+01 </wgt>
<wgt id='1259'> +8.1119824e+01 </wgt>
<wgt id='1260'> +8.0180935e+01 </wgt>
<wgt id='1261'> +8.0399317e+01 </wgt>
<wgt id='1262'> +8.0341211e+01 </wgt>
<wgt id='1263'> +8.0841380e+01 </wgt>
<wgt id='1264'> +8.0953590e+01 </wgt>
<wgt id='1265'> +8.0543500e+01 </wgt>
<wgt id='1266'> +8.0905163e+01 </wgt>
<wgt id='1267'> +8.0767346e+01 </wgt>
<wgt id='1268'> +8.0471242e+01 </wgt>
<wgt id='1269'> +8.0475942e+01 </wgt>
<wgt id='1270'> +8.0730590e+01 </wgt>
<wgt id='1271'> +8.0595862e+01 </wgt>
<wgt id='1272'> +8.0629992e+01 </wgt>
<wgt id='1273'> +8.0317708e+01 </wgt>
<wgt id='1274'> +8.0365714e+01 </wgt>
<wgt id='1275'> +8.0591408e+01 </wgt>
<wgt id='1276'> +8.0621646e+01 </wgt>
<wgt id='1277'> +8.0745295e+01 </wgt>
<wgt id='1278'> +8.0809518e+01 </wgt>
<wgt id='1279'> +8.0772799e+01 </wgt>
<wgt id='1280'> +8.0527055e+01 </wgt>
<wgt id='1281'> +8.0622807e+01 </wgt>
<wgt id='1282'> +8.0675735e+01 </wgt>
<wgt id='1283'> +8.0556012e+01 </wgt>
<wgt id='1284'> +8.0433007e+01 </wgt>
<wgt id='1285'> +8.0458642e+01 </wgt>
<wgt id='1286'> +8.0626327e+01 </wgt>
<wgt id='1287'> +8.0489251e+01 </wgt>
<wgt id='1288'> +8.0754678e+01 </wgt>
<wgt id='1289'> +8.0425431e+01 </wgt>
<wgt id='1290'> +8.0583406e+01 </wgt>
<wgt id='1291'> +8.0750156e+01 </wgt>
<wgt id='1292'> +8.0373640e+01 </wgt>
<wgt id='1293'> +8.0688571e+01 </wgt>
<wgt id='1294'> +8.0619779e+01 </wgt>
<wgt id='1295'> +8.0715012e+01 </wgt>
<wgt id='1296'> +8.0415481e+01 </wgt>
<wgt id='1297'> +8.0433900e+01 </wgt>
<wgt id='1298'> +8.0572921e+01 </wgt>
<wgt id='1299'> +8.0538735e+01 </wgt>
<wgt id='1300'> +8.0706418e+01 </wgt>
<wgt id='1301'> +8.0563023e+01 </wgt>
<wgt id='1302'> +8.0473096e+01 </wgt>
<wgt id='1303'> +8.0435716e+01 </wgt>
<wgt id='1304'> +8.0560705e+01 </wgt>
<wgt id='1305'> +8.0660812e+01 </wgt>
<wgt id='1306'> +8.0572986e+01 </wgt>
<wgt id='1307'> +8.0520664e+01 </wgt>
<wgt id='1308'> +8.0699389e+01 </wgt>
<wgt id='1309'> +8.0572341e+01 </wgt>
<wgt id='1310'> +8.0697278e+01 </wgt>
<wgt id='1311'> +8.0575918e+01 </wgt>
<wgt id='1312'> +8.0615228e+01 </wgt>
<wgt id='1313'> +8.0458265e+01 </wgt>
<wgt id='1314'> +8.0529934e+01 </wgt>
<wgt id='1315'> +8.0584592e+01 </wgt>
<wgt id='1316'> +8.0706565e+01 </wgt>
<wgt id='1317'> +7.8200999e+01 </wgt>
<wgt id='1318'> +8.3373412e+01 </wgt>
<wgt id='1319'> +9.2040380e+01 </wgt>
<wgt id='1320'> +7.7085338e+01 </wgt>
<wgt id='1321'> +7.8009995e+01 </wgt>
<wgt id='1322'> +7.7695177e+01 </wgt>
<wgt id='1323'> +7.6777885e+01 </wgt>
<wgt id='1324'> +7.6788890e+01 </wgt>
<wgt id='1325'> +7.7911449e+01 </wgt>
<wgt id='1326'> +7.6923872e+01 </wgt>
<wgt id='1327'> +7.7005227e+01 </wgt>
<wgt id='1328'> +7.8238010e+01 </wgt>
<wgt id='1329'> +7.6394304e+01 </wgt>
<wgt id='1330'> +7.7335799e+01 </wgt>
<wgt id='1331'> +7.4305681e+01 </wgt>
<wgt id='1332'> +7.9421683e+01 </wgt>
<wgt id='1333'> +7.6909433e+01 </wgt>
<wgt id='1334'> +7.6095261e+01 </wgt>
<wgt id='1335'> +7.9426691e+01 </wgt>
<wgt id='1336'> +7.3581577e+01 </wgt>
<wgt id='1337'> +8.0580949e+01 </wgt>
<wgt id='1338'> +7.3211454e+01 </wgt>
<wgt id='1339'> +7.7534635e+01 </wgt>
<wgt id='1340'> +7.6536513e+01 </wgt>
<wgt id='1341'> +7.7561400e+01 </wgt>
<wgt id='1342'> +7.6009839e+01 </wgt>
<wgt id='1343'> +7.7761387e+01 </wgt>
<wgt id='1344'> +7.6231861e+01 </wgt>
<wgt id='1345'> +7.6143146e+01 </wgt>
<wgt id='1346'> +7.7830587e+01 </wgt>
<wgt id='1347'> +7.7108199e+01 </wgt>
<wgt id='1348'> +7.6965198e+01 </wgt>
<wgt id='1349'> +7.7749198e+01 </wgt>
<wgt id='1350'> +7.6855483e+01 </wgt>
<wgt id='1351'> +7.8591429e+01 </wgt>
<wgt id='1352'> +7.5167347e+01 </wgt>
<wgt id='1353'> +7.7125750e+01 </wgt>
<wgt id='1354'> +7.6999966e+01 </wgt>
<wgt id='1355'> +7.7413141e+01 </wgt>
<wgt id='1356'> +7.6941140e+01 </wgt>
<wgt id='1357'> +7.7641110e+01 </wgt>
<wgt id='1358'> +7.5632181e+01 </wgt>
<wgt id='1359'> +7.5321307e+01 </wgt>
<wgt id='1360'> +7.7599593e+01 </wgt>
<wgt id='1361'> +7.6354110e+01 </wgt>
<wgt id='1362'> +7.8282853e+01 </wgt>
<wgt id='1363'> +7.7710184e+01 </wgt>
<wgt id='1364'> +7.5900661e+01 </wgt>
<wgt id='1365'> +7.6663536e+01 </wgt>
<wgt id='1366'> +7.5049799e+01 </wgt>
<wgt id='1367'> +7.4782264e+01 </wgt>
<wgt id='1368'> +7.6570114e+01 </wgt>
<wgt id='1369'> +7.5255934e+01 </wgt>
<wgt id='1370'> +7.6839600e+01 </wgt>
<wgt id='1371'> +7.5634033e+01 </wgt>
<wgt id='1372'> +7.5214821e+01 </wgt>
<wgt id='1373'> +7.6655717e+01 </wgt>
<wgt id='1374'> +7.6661312e+01 </wgt>
<wgt id='1375'> +7.6671747e+01 </wgt>
<wgt id='1376'> +7.9874246e+01 </wgt>
<wgt id='1377'> +7.4061175e+01 </wgt>
<wgt id='1378'> +8.0088506e+01 </wgt>
<wgt id='1379'> +7.6104729e+01 </wgt>
<wgt id='1380'> +7.3155864e+01 </wgt>
<wgt id='1381'> +7.9200752e+01 </wgt>
<wgt id='1382'> +7.3478767e+01 </wgt>
<wgt id='1383'> +7.6553710e+01 </wgt>
<wgt id='1384'> +7.8008338e+01 </wgt>
<wgt id='1385'> +9.0113645e+01 </wgt>
<wgt id='1386'> +9.0820411e+01 </wgt>
<wgt id='1387'> +8.9336175e+01 </wgt>
<wgt id='1388'> +9.0371577e+01 </wgt>
<wgt id='1389'> +8.9659735e+01 </wgt>
<wgt id='1390'> +9.0723803e+01 </wgt>
<wgt id='1391'> +8.9394047e+01 </wgt>
<wgt id='1392'> +8.9895730e+01 </wgt>
<wgt id='1393'> +9.0266175e+01 </wgt>
<wgt id='1394'> +9.0299160e+01 </wgt>
<wgt id='1395'> +8.9883713e+01 </wgt>
<wgt id='1396'> +9.0097775e+01 </wgt>
<wgt id='1397'> +9.0115242e+01 </wgt>
<wgt id='1398'> +8.9265119e+01 </wgt>
<wgt id='1399'> +9.0750255e+01 </wgt>
<wgt id='1400'> +9.0169798e+01 </wgt>
<wgt id='1401'> +9.0069772e+01 </wgt>
<wgt id='1402'> +8.9270625e+01 </wgt>
<wgt id='1403'> +9.0496058e+01 </wgt>
<wgt id='1404'> +8.8512829e+01 </wgt>
<wgt id='1405'> +9.0940197e+01 </wgt>
<wgt id='1406'> +8.9970438e+01 </wgt>
<wgt id='1407'> +9.0366148e+01 </wgt>
<wgt id='1408'> +8.9149601e+01 </wgt>
<wgt id='1409'> +9.2068147e+01 </wgt>
<wgt id='1410'> +8.9968334e+01 </wgt>
<wgt id='1411'> +9.0333200e+01 </wgt>
<wgt id='1412'> +9.0487734e+01 </wgt>
<wgt id='1413'> +8.9671528e+01 </wgt>
<wgt id='1414'> +8.9630254e+01 </wgt>
<wgt id='1415'> +9.0476780e+01 </wgt>
<wgt id='1416'> +8.8632876e+01 </wgt>
<wgt id='1417'> +9.0804868e+01 </wgt>
<wgt id='1418'> +8.9884056e+01 </wgt>
<wgt id='1419'> +9.0528499e+01 </wgt>
<wgt id='1420'> +8.9502450e+01 </wgt>
<wgt id='1421'> +9.0730580e+01 </wgt>
<wgt id='1422'> +9.0349382e+01 </wgt>
<wgt id='1423'> +8.9802441e+01 </wgt>
<wgt id='1424'> +9.0708454e+01 </wgt>
<wgt id='1425'> +8.9134307e+01 </wgt>
<wgt id='1426'> +9.1463884e+01 </wgt>
<wgt id='1427'> +8.9943815e+01 </wgt>
<wgt id='1428'> +8.9695694e+01 </wgt>
<wgt id='1429'> +8.9144462e+01 </wgt>
<wgt id='1430'> +9.1079277e+01 </wgt>
<wgt id='1431'> +9.0625221e+01 </wgt>
<wgt id='1432'> +9.0729072e+01 </wgt>
<wgt id='1433'> +9.1201721e+01 </wgt>
<wgt id='1434'> +9.0318347e+01 </wgt>
<wgt id='1435'> +8.9467819e+01 </wgt>
<wgt id='1436'> +5.8202527e+01 </wgt>
<wgt id='1437'> +5.8194099e+01 </wgt>
<wgt id='1438'> +5.8323203e+01 </wgt>
<wgt id='1439'> +5.8211127e+01 </wgt>
<wgt id='1440'> +5.7813471e+01 </wgt>
<wgt id='1441'> +5.8759353e+01 </wgt>
<wgt id='1442'> +5.7991921e+01 </wgt>
<wgt id='1443'> +5.8060880e+01 </wgt>
<wgt id='1444'> +5.8165625e+01 </wgt>
<wgt id='1445'> +5.7380943e+01 </wgt>
<wgt id='1446'> +5.8505911e+01 </wgt>
<wgt id='1447'> +5.8084206e+01 </wgt>
<wgt id='1448'> +5.8096291e+01 </wgt>
<wgt id='1449'> +5.8326582e+01 </wgt>
<wgt id='1450'> +5.8230615e+01 </wgt>
<wgt id='1451'> +5.8361937e+01 </wgt>
<wgt id='1452'> +5.8108645e+01 </wgt>
<wgt id='1453'> +5.8330247e+01 </wgt>
<wgt id='1454'> +5.8350782e+01 </wgt>
<wgt id='1455'> +5.8320103e+01 </wgt>
<wgt id='1456'> +5.8638532e+01 </wgt>
<wgt id='1457'> +5.8553505e+01 </wgt>
<wgt id='1458'> +5.8621415e+01 </wgt>
<wgt id='1459'> +5.8326554e+01 </wgt>
<wgt id='1460'> +5.8044410e+01 </wgt>
<wgt id='1461'> +5.7999104e+01 </wgt>
<wgt id='1462'> +5.8223203e+01 </wgt>
<wgt id='1463'> +5.8166060e+01 </wgt>
<wgt id='1464'> +5.7926455e+01 </wgt>
<wgt id='1465'> +7.3768991e+01 </wgt>
<wgt id='1466'> +7.6546310e+01 </wgt>
<wgt id='1467'> +7.6506076e+01 </wgt>
<wgt id='1468'> +7.5993334e+01 </wgt>
<wgt id='1469'> +7.7645471e+01 </wgt>
<wgt id='1470'> +7.6254238e+01 </wgt>
<wgt id='1471'> +7.6560427e+01 </wgt>
<wgt id='1472'> +7.5869130e+01 </wgt>
<wgt id='1473'> +7.7163052e+01 </wgt>
<wgt id='1474'> +7.7076145e+01 </wgt>
<wgt id='1475'> +7.6403910e+01 </wgt>
<wgt id='1476'> +7.6630186e+01 </wgt>
<wgt id='1477'> +7.5719338e+01 </wgt>
<wgt id='1478'> +7.6531461e+01 </wgt>
<wgt id='1479'> +7.6353741e+01 </wgt>
<wgt id='1480'> +7.6369966e+01 </wgt>
<wgt id='1481'> +7.6649466e+01 </wgt>
<wgt id='1482'> +7.5756207e+01 </wgt>
<wgt id='1483'> +7.7331057e+01 </wgt>
<wgt id='1484'> +7.7860895e+01 </wgt>
<wgt id='1485'> +7.6050643e+01 </wgt>
<wgt id='1486'> +7.6746754e+01 </wgt>
<wgt id='1487'> +7.6505494e+01 </wgt>
<wgt id='1488'> +7.6344365e+01 </wgt>
<wgt id='1489'> +7.7542988e+01 </wgt>
<wgt id='1490'> +7.6409873e+01 </wgt>
<wgt id='1491'> +7.5636704e+01 </wgt>
<wgt id='1492'> +7.6199139e+01 </wgt>
<wgt id='1493'> +7.7102343e+01 </wgt>
<wgt id='1494'> +7.5788832e+01 </wgt>
<wgt id='1495'> +7.6537150e+01 </wgt>
<wgt id='1496'> +7.7189659e+01 </wgt>
<wgt id='1497'> +7.6384737e+01 </wgt>
<wgt id='1498'> +7.6828466e+01 </wgt>
<wgt id='1499'> +7.6673453e+01 </wgt>
<wgt id='1500'> +7.7182613e+01 </wgt>
<wgt id='1501'> +7.6672475e+01 </wgt>
<wgt id='1502'> +7.6473284e+01 </wgt>
<wgt id='1503'> +7.7037325e+01 </wgt>
<wgt id='1504'> +7.6019500e+01 </wgt>
<wgt id='1505'> +7.6761686e+01 </wgt>
<wgt id='1506'> +7.6880712e+01 </wgt>
<wgt id='1507'> +7.6392143e+01 </wgt>
<wgt id='1508'> +7.6907988e+01 </wgt>
<wgt id='1509'> +7.6353255e+01 </wgt>
<wgt id='1510'> +7.7143767e+01 </wgt>
<wgt id='1511'> +7.6783672e+01 </wgt>
<wgt id='1512'> +7.6443105e+01 </wgt>
<wgt id='1513'> +7.6313323e+01 </wgt>
<wgt id='1514'> +7.6311709e+01 </wgt>
<wgt id='1515'> +7.6634200e+01 </wgt>
<wgt id='1516'> +7.6606127e+01 </wgt>
<wgt id='1517'> +7.6430868e+01 </wgt>
<wgt id='1518'> +7.6396354e+01 </wgt>
<wgt id='1519'> +7.6593285e+01 </wgt>
<wgt id='1520'> +7.6562978e+01 </wgt>
<wgt id='1521'> +7.6368377e+01 </wgt>
<wgt id='1522'> +7.6576606e+01 </wgt>
<wgt id='1523'> +7.6675302e+01 </wgt>
<wgt id='1524'> +7.6704212e+01 </wgt>
<wgt id='1525'> +7.6501848e+01 </wgt>
<wgt id='1526'> +7.6426470e+01 </wgt>
<wgt id='1527'> +7.6287075e+01 </wgt>
<wgt id='1528'> +7.6688525e+01 </wgt>
<wgt id='1529'> +7.6686068e+01 </wgt>
<wgt id='1530'> +7.6541431e+01 </wgt>
<wgt id='1531'> +7.6543592e+01 </wgt>
<wgt id='1532'> +7.6718325e+01 </wgt>
<wgt id='1533'> +7.6535865e+01 </wgt>
<wgt id='1534'> +7.6577688e+01 </wgt>
<wgt id='1535'> +7.6519344e+01 </wgt>
<wgt id='1536'> +7.6507302e+01 </wgt>
<wgt id='1537'> +7.6504107e+01 </wgt>
<wgt id='1538'> +7.6548786e+01 </wgt>
<wgt id='1539'> +7.6509001e+01 </wgt>
<wgt id='1540'> +7.6611744e+01 </wgt>
<wgt id='1541'> +7.6562971e+01 </wgt>
<wgt id='1542'> +7.6450697e+01 </wgt>
<wgt id='1543'> +7.6567357e+01 </wgt>
<wgt id='1544'> +7.6540170e+01 </wgt>
<wgt id='1545'> +7.6574636e+01 </wgt>
<wgt id='1546'> +7.6550277e+01 </wgt>
<wgt id='1547'> +7.6538988e+01 </wgt>
<wgt id='1548'> +7.6478255e+01 </wgt>
<wgt id='1549'> +7.6502521e+01 </wgt>
<wgt id='1550'> +7.6549675e+01 </wgt>
<wgt id='1551'> +7.6643476e+01 </wgt>
<wgt id='1552'> +7.6548509e+01 </wgt>
<wgt id='1553'> +7.6540301e+01 </wgt>
<wgt id='1554'> +7.6575604e+01 </wgt>
<wgt id='1555'> +7.6515733e+01 </wgt>
<wgt id='1556'> +7.6504770e+01 </wgt>
<wgt id='1557'> +7.6537611e+01 </wgt>
<wgt id='1558'> +7.6529522e+01 </wgt>
<wgt id='1559'> +7.6577179e+01 </wgt>
<wgt id='1560'> +7.6535133e+01 </wgt>
<wgt id='1561'> +7.6486562e+01 </wgt>
<wgt id='1562'> +7.6539109e+01 </wgt>
<wgt id='1563'> +7.6575743e+01 </wgt>
<wgt id='1564'> +7.6550610e+01 </wgt>
<wgt id='1565'> +7.6521481e+01 </wgt>
<wgt id='1566'> +7.6555068e+01 </wgt>
<wgt id='1567'> +7.4144235e+01 </wgt>
<wgt id='1568'> +7.8646837e+01 </wgt>
<wgt id='1569'> +7.6914945e+01 </wgt>
<wgt id='1570'> +7.7115409e+01 </wgt>
<wgt id='1571'> +7.6753201e+01 </wgt>
<wgt id='1572'> +7.7160804e+01 </wgt>
<wgt id='1573'> +7.7683064e+01 </wgt>
<wgt id='1574'> +7.7587591e+01 </wgt>
<wgt id='1575'> +7.7051066e+01 </wgt>
<wgt id='1576'> +7.7060207e+01 </wgt>
<wgt id='1577'> +7.6998511e+01 </wgt>
<wgt id='1578'> +7.7039096e+01 </wgt>
<wgt id='1579'> +7.6682234e+01 </wgt>
<wgt id='1580'> +7.7533549e+01 </wgt>
<wgt id='1581'> +7.6847963e+01 </wgt>
<wgt id='1582'> +7.7023930e+01 </wgt>
<wgt id='1583'> +7.6849747e+01 </wgt>
<wgt id='1584'> +7.7810538e+01 </wgt>
<wgt id='1585'> +7.6472129e+01 </wgt>
<wgt id='1586'> +7.6754676e+01 </wgt>
<wgt id='1587'> +7.7916787e+01 </wgt>
<wgt id='1588'> +7.5532776e+01 </wgt>
<wgt id='1589'> +7.6607401e+01 </wgt>
<wgt id='1590'> +7.7237191e+01 </wgt>
<wgt id='1591'> +7.5612232e+01 </wgt>
<wgt id='1592'> +7.7094417e+01 </wgt>
<wgt id='1593'> +7.7690724e+01 </wgt>
<wgt id='1594'> +7.6875988e+01 </wgt>
<wgt id='1595'> +7.6555194e+01 </wgt>
<wgt id='1596'> +7.6967295e+01 </wgt>
<wgt id='1597'> +7.6821121e+01 </wgt>
<wgt id='1598'> +7.6477752e+01 </wgt>
<wgt id='1599'> +7.6775656e+01 </wgt>
<wgt id='1600'> +7.6638427e+01 </wgt>
<wgt id='1601'> +7.6685238e+01 </wgt>
<wgt id='1602'> +7.6331574e+01 </wgt>
<wgt id='1603'> +7.6170341e+01 </wgt>
<wgt id='1604'> +7.7861539e+01 </wgt>
<wgt id='1605'> +7.6402822e+01 </wgt>
<wgt id='1606'> +7.7034818e+01 </wgt>
<wgt id='1607'> +7.6280390e+01 </wgt>
<wgt id='1608'> +7.6785041e+01 </wgt>
<wgt id='1609'> +7.6196218e+01 </wgt>
<wgt id='1610'> +7.6861460e+01 </wgt>
<wgt id='1611'> +7.6756238e+01 </wgt>
<wgt id='1612'> +7.6758962e+01 </wgt>
<wgt id='1613'> +7.7180302e+01 </wgt>
<wgt id='1614'> +7.6775811e+01 </wgt>
<wgt id='1615'> +7.6800691e+01 </wgt>
<wgt id='1616'> +7.6950490e+01 </wgt>
<wgt id='1617'> +7.7255401e+01 </wgt>
<wgt id='1618'> +7.6961069e+01 </wgt>
<wgt id='1619'> +7.7330906e+01 </wgt>
<wgt id='1620'> +7.7010768e+01 </wgt>
<wgt id='1621'> +7.6854371e+01 </wgt>
<wgt id='1622'> +7.6980645e+01 </wgt>
<wgt id='1623'> +7.6764817e+01 </wgt>
<wgt id='1624'> +7.7022246e+01 </wgt>
<wgt id='1625'> +7.6915531e+01 </wgt>
<wgt id='1626'> +7.6879116e+01 </wgt>
<wgt id='1627'> +7.6754838e+01 </wgt>
<wgt id='1628'> +7.6833599e+01 </wgt>
<wgt id='1629'> +7.6837177e+01 </wgt>
<wgt id='1630'> +7.6903283e+01 </wgt>
<wgt id='1631'> +7.6982604e+01 </wgt>
<wgt id='1632'> +7.7164274e+01 </wgt>
<wgt id='1633'> +7.7000966e+01 </wgt>
<wgt id='1634'> +7.6699999e+01 </wgt>
<wgt id='1635'> +7.7028285e+01 </wgt>
<wgt id='1636'> +7.6914214e+01 </wgt>
<wgt id='1637'> +7.6961467e+01 </wgt>
<wgt id='1638'> +7.6950097e+01 </wgt>
<wgt id='1639'> +7.6878211e+01 </wgt>
<wgt id='1640'> +7.6916692e+01 </wgt>
<wgt id='1641'> +7.7006318e+01 </wgt>
<wgt id='1642'> +7.6891378e+01 </wgt>
<wgt id='1643'> +7.6971929e+01 </wgt>
<wgt id='1644'> +7.6902553e+01 </wgt>
<wgt id='1645'> +7.6878719e+01 </wgt>
<wgt id='1646'> +7.6966666e+01 </wgt>
<wgt id='1647'> +7.6862971e+01 </wgt>
<wgt id='1648'> +7.6908055e+01 </wgt>
<wgt id='1649'> +7.6952778e+01 </wgt>
<wgt id='1650'> +7.6934230e+01 </wgt>
<wgt id='1651'> +7.6976160e+01 </wgt>
<wgt id='1652'> +7.6987491e+01 </wgt>
<wgt id='1653'> +7.6885722e+01 </wgt>
<wgt id='1654'> +7.6895736e+01 </wgt>
<wgt id='1655'> +7.6903641e+01 </wgt>
<wgt id='1656'> +7.6874482e+01 </wgt>
<wgt id='1657'> +7.6894878e+01 </wgt>
<wgt id='1658'> +7.6889335e+01 </wgt>
<wgt id='1659'> +7.6929085e+01 </wgt>
<wgt id='1660'> +7.6889909e+01 </wgt>
<wgt id='1661'> +7.6888902e+01 </wgt>
<wgt id='1662'> +7.6899663e+01 </wgt>
<wgt id='1663'> +7.6936999e+01 </wgt>
<wgt id='1664'> +7.6881435e+01 </wgt>
<wgt id='1665'> +7.6916914e+01 </wgt>
<wgt id='1666'> +7.6927679e+01 </wgt>
<wgt id='1667'> +7.6957643e+01 </wgt>
<wgt id='1668'> +7.6871285e+01 </wgt>
<wgt id='1669'> +7.6880356e+01 </wgt>
<wgt id='1670'> +7.4650726e+01 </wgt>
<wgt id='1671'> +7.9179022e+01 </wgt>
<wgt id='1672'> +7.6543815e+01 </wgt>
<wgt id='1673'> +7.7439151e+01 </wgt>
<wgt id='1674'> +7.4923352e+01 </wgt>
<wgt id='1675'> +7.6548441e+01 </wgt>
<wgt id='1676'> +7.8012116e+01 </wgt>
<wgt id='1677'> +7.6619785e+01 </wgt>
<wgt id='1678'> +7.7324365e+01 </wgt>
<wgt id='1679'> +7.6701954e+01 </wgt>
<wgt id='1680'> +7.6523134e+01 </wgt>
<wgt id='1681'> +7.6810128e+01 </wgt>
<wgt id='1682'> +7.6676959e+01 </wgt>
<wgt id='1683'> +7.6123440e+01 </wgt>
<wgt id='1684'> +7.6105424e+01 </wgt>
<wgt id='1685'> +7.6408010e+01 </wgt>
<wgt id='1686'> +7.5899041e+01 </wgt>
<wgt id='1687'> +7.6337712e+01 </wgt>
<wgt id='1688'> +7.6727195e+01 </wgt>
<wgt id='1689'> +7.5953154e+01 </wgt>
<wgt id='1690'> +7.6337770e+01 </wgt>
<wgt id='1691'> +7.6642225e+01 </wgt>
<wgt id='1692'> +7.8405926e+01 </wgt>
<wgt id='1693'> +7.6585927e+01 </wgt>
<wgt id='1694'> +7.6661703e+01 </wgt>
<wgt id='1695'> +7.6624582e+01 </wgt>
<wgt id='1696'> +7.6943880e+01 </wgt>
<wgt id='1697'> +7.6461195e+01 </wgt>
<wgt id='1698'> +7.6491361e+01 </wgt>
<wgt id='1699'> +7.6340117e+01 </wgt>
<wgt id='1700'> +7.6617408e+01 </wgt>
<wgt id='1701'> +7.6333190e+01 </wgt>
<wgt id='1702'> +7.6488176e+01 </wgt>
<wgt id='1703'> +7.4144235e+01 </wgt>
<wgt id='1704'> +7.8646837e+01 </wgt>
<wgt id='1705'> +7.6911657e+01 </wgt>
<wgt id='1706'> +7.7356111e+01 </wgt>
<wgt id='1707'> +7.8123241e+01 </wgt>
<wgt id='1708'> +7.6851881e+01 </wgt>
<wgt id='1709'> +7.5939100e+01 </wgt>
<wgt id='1710'> +7.6550981e+01 </wgt>
<wgt id='1711'> +7.6876067e+01 </wgt>
<wgt id='1712'> +7.6750049e+01 </wgt>
<wgt id='1713'> +7.7235322e+01 </wgt>
<wgt id='1714'> +7.5697808e+01 </wgt>
<wgt id='1715'> +7.6807266e+01 </wgt>
<wgt id='1716'> +7.9333063e+01 </wgt>
<wgt id='1717'> +7.6875390e+01 </wgt>
<wgt id='1718'> +7.7142065e+01 </wgt>
<wgt id='1719'> +7.6914817e+01 </wgt>
<wgt id='1720'> +7.7265445e+01 </wgt>
<wgt id='1721'> +7.7152914e+01 </wgt>
<wgt id='1722'> +7.6981935e+01 </wgt>
<wgt id='1723'> +7.7045611e+01 </wgt>
<wgt id='1724'> +7.7069269e+01 </wgt>
<wgt id='1725'> +7.6312319e+01 </wgt>
<wgt id='1726'> +7.6647951e+01 </wgt>
<wgt id='1727'> +7.7140951e+01 </wgt>
<wgt id='1728'> +7.6928349e+01 </wgt>
<wgt id='1729'> +7.6614781e+01 </wgt>
<wgt id='1730'> +7.6912178e+01 </wgt>
<wgt id='1731'> +7.6651078e+01 </wgt>
<wgt id='1732'> +7.6809279e+01 </wgt>
<wgt id='1733'> +7.6411303e+01 </wgt>
<wgt id='1734'> +7.6966453e+01 </wgt>
<wgt id='1735'> +7.6726712e+01 </wgt>
<wgt id='1736'> +7.4650726e+01 </wgt>
<wgt id='1737'> +7.9179022e+01 </wgt>
<wgt id='1738'> +6.2874704e+01 </wgt>
<wgt id='1739'> +6.3044524e+01 </wgt>
<wgt id='1740'> +6.2705870e+01 </wgt>
<wgt id='1741'> +6.2692403e+01 </wgt>
<wgt id='1742'> +6.3057003e+01 </wgt>
<wgt id='1743'> +6.3020152e+01 </wgt>
<wgt id='1744'> +6.2729572e+01 </wgt>
<wgt id='1745'> +6.2578855e+01 </wgt>
<wgt id='1746'> +6.3162101e+01 </wgt>
<wgt id='1747'> +6.3400668e+01 </wgt>
<wgt id='1748'> +6.2344571e+01 </wgt>
<wgt id='1749'> +6.2994445e+01 </wgt>
<wgt id='1750'> +6.2772591e+01 </wgt>
<wgt id='1751'> +6.2920313e+01 </wgt>
<wgt id='1752'> +6.2828381e+01 </wgt>
<wgt id='1753'> +6.2711334e+01 </wgt>
<wgt id='1754'> +6.2952380e+01 </wgt>
<wgt id='1755'> +6.2679041e+01 </wgt>
<wgt id='1756'> +6.3101196e+01 </wgt>
<wgt id='1757'> +6.2892005e+01 </wgt>
<wgt id='1758'> +6.2806534e+01 </wgt>
<wgt id='1759'> +6.2144607e+01 </wgt>
<wgt id='1760'> +6.3575013e+01 </wgt>
<wgt id='1761'> +6.4124835e+01 </wgt>
<wgt id='1762'> +6.1501172e+01 </wgt>
<wgt id='1763'> +6.2943472e+01 </wgt>
<wgt id='1764'> +6.2844531e+01 </wgt>
<wgt id='1765'> +6.3293754e+01 </wgt>
<wgt id='1766'> +6.2477656e+01 </wgt>
<wgt id='1767'> +6.2874704e+01 </wgt>
<wgt id='1768'> +6.7249822e+01 </wgt>
<wgt id='1769'> +5.8076098e+01 </wgt>
<wgt id='1770'> +7.3644785e+01 </wgt>
<wgt id='1771'> +6.9220020e+01 </wgt>
<wgt id='1772'> +6.2776858e+01 </wgt>
<wgt id='1773'> +6.3295146e+01 </wgt>
<wgt id='1774'> +6.2953421e+01 </wgt>
<wgt id='1775'> +6.2751566e+01 </wgt>
<wgt id='1776'> +6.2309551e+01 </wgt>
<wgt id='1777'> +6.3323934e+01 </wgt>
<wgt id='1778'> +6.2082684e+01 </wgt>
<wgt id='1779'> +6.3883156e+01 </wgt>
<wgt id='1780'> +5.9143810e+01 </wgt>
<wgt id='1781'> +6.2761861e+01 </wgt>
<wgt id='1782'> +6.2906841e+01 </wgt>
<wgt id='1783'> +6.2601381e+01 </wgt>
<wgt id='1784'> +6.2533131e+01 </wgt>
<wgt id='1785'> +6.2974880e+01 </wgt>
<wgt id='1786'> +6.2799354e+01 </wgt>
<wgt id='1787'> +6.2708164e+01 </wgt>
<wgt id='1788'> +6.2296394e+01 </wgt>
<wgt id='1789'> +6.3200440e+01 </wgt>
<wgt id='1790'> +6.3066393e+01 </wgt>
<wgt id='1791'> +6.2441126e+01 </wgt>
<wgt id='1792'> +6.3057227e+01 </wgt>
<wgt id='1793'> +6.2451280e+01 </wgt>
<wgt id='1794'> +6.2619802e+01 </wgt>
<wgt id='1795'> +6.2884608e+01 </wgt>
<wgt id='1796'> +6.2667022e+01 </wgt>
<wgt id='1797'> +6.2747222e+01 </wgt>
<wgt id='1798'> +6.2929227e+01 </wgt>
<wgt id='1799'> +6.2571204e+01 </wgt>
<wgt id='1800'> +6.2710129e+01 </wgt>
<wgt id='1801'> +6.2789409e+01 </wgt>
<wgt id='1802'> +6.3205059e+01 </wgt>
<wgt id='1803'> +6.2259889e+01 </wgt>
<wgt id='1804'> +6.4061548e+01 </wgt>
<wgt id='1805'> +6.1508830e+01 </wgt>
<wgt id='1806'> +6.5163668e+01 </wgt>
<wgt id='1807'> +6.0497124e+01 </wgt>
<wgt id='1808'> +6.4674192e+01 </wgt>
<wgt id='1809'> +6.1001459e+01 </wgt>
<wgt id='1810'> +6.2755260e+01 </wgt>
<wgt id='1811'> +6.7765219e+01 </wgt>
<wgt id='1812'> +5.7717464e+01 </wgt>
<wgt id='1813'> +7.3849799e+01 </wgt>
<wgt id='1814'> +6.7763881e+01 </wgt>
<wgt id='1815'> +6.6080524e+01 </wgt>
<wgt id='1816'> +6.2620022e+01 </wgt>
<wgt id='1817'> +6.2709396e+01 </wgt>
<wgt id='1818'> +6.2099114e+01 </wgt>
<wgt id='1819'> +6.3334254e+01 </wgt>
<wgt id='1820'> +6.6656580e+01 </wgt>
<wgt id='1821'> +6.4326282e+01 </wgt>
<wgt id='1822'> +6.0967095e+01 </wgt>
<wgt id='1823'> +6.2058837e+01 </wgt>
<wgt id='1824'> +7.6223354e+01 </wgt>
<wgt id='1825'> +7.6178841e+01 </wgt>
<wgt id='1826'> +7.6134356e+01 </wgt>
<wgt id='1827'> +7.6089902e+01 </wgt>
<wgt id='1828'> +7.6045418e+01 </wgt>
<wgt id='1829'> +7.6000982e+01 </wgt>
<wgt id='1830'> +7.5956568e+01 </wgt>
<wgt id='1831'> +7.5912160e+01 </wgt>
<wgt id='1832'> +7.5867743e+01 </wgt>
<wgt id='1833'> +7.5823366e+01 </wgt>
<wgt id='1834'> +7.5778968e+01 </wgt>
<wgt id='1835'> +7.5734606e+01 </wgt>
<wgt id='1836'> +7.5690181e+01 </wgt>
<wgt id='1837'> +7.5645854e+01 </wgt>
<wgt id='1838'> +7.5601562e+01 </wgt>
<wgt id='1839'> +7.5557195e+01 </wgt>
<wgt id='1840'> +7.5512906e+01 </wgt>
<wgt id='1841'> +7.5468642e+01 </wgt>
<wgt id='1842'> +7.5424311e+01 </wgt>
<wgt id='1843'> +7.5380042e+01 </wgt>
<wgt id='1844'> +7.5335766e+01 </wgt>
<wgt id='1845'> +7.5291545e+01 </wgt>
<wgt id='1846'> +7.5247299e+01 </wgt>
<wgt id='1847'> +7.5203019e+01 </wgt>
<wgt id='1848'> +7.5158756e+01 </wgt>
<wgt id='1849'> +7.5114614e+01 </wgt>
<wgt id='1850'> +7.5070326e+01 </wgt>
<wgt id='1851'> +7.5026176e+01 </wgt>
<wgt id='1852'> +7.4982042e+01 </wgt>
<wgt id='1853'> +7.4937833e+01 </wgt>
<wgt id='1854'> +7.4893721e+01 </wgt>
<wgt id='1855'> +7.6655879e+01 </wgt>
<wgt id='1856'> +7.6838015e+01 </wgt>
<wgt id='1857'> +7.6491152e+01 </wgt>
<wgt id='1858'> +7.6901397e+01 </wgt>
<wgt id='1859'> +7.7417500e+01 </wgt>
<wgt id='1860'> +7.7324386e+01 </wgt>
<wgt id='1861'> +7.6804922e+01 </wgt>
<wgt id='1862'> +7.6815544e+01 </wgt>
<wgt id='1863'> +7.6741314e+01 </wgt>
<wgt id='1864'> +7.6780597e+01 </wgt>
<wgt id='1865'> +7.6420315e+01 </wgt>
<wgt id='1866'> +7.7290481e+01 </wgt>
<wgt id='1867'> +7.6596739e+01 </wgt>
<wgt id='1868'> +7.6769955e+01 </wgt>
<wgt id='1869'> +7.6589087e+01 </wgt>
<wgt id='1870'> +7.7527337e+01 </wgt>
<wgt id='1871'> +7.6231563e+01 </wgt>
<wgt id='1872'> +7.6489515e+01 </wgt>
<wgt id='1873'> +7.7652004e+01 </wgt>
<wgt id='1874'> +7.5287550e+01 </wgt>
<wgt id='1875'> +7.6361423e+01 </wgt>
<wgt id='1876'> +7.6969254e+01 </wgt>
<wgt id='1877'> +7.5352805e+01 </wgt>
<wgt id='1878'> +7.6841898e+01 </wgt>
<wgt id='1879'> +7.7424881e+01 </wgt>
<wgt id='1880'> +7.6603758e+01 </wgt>
<wgt id='1881'> +7.6284108e+01 </wgt>
<wgt id='1882'> +7.6722593e+01 </wgt>
<wgt id='1883'> +7.6566737e+01 </wgt>
<wgt id='1884'> +7.6212781e+01 </wgt>
<wgt id='1885'> +7.6509720e+01 </wgt>
<wgt id='1886'> +7.6394251e+01 </wgt>
<wgt id='1887'> +7.6422468e+01 </wgt>
<wgt id='1888'> +7.6068088e+01 </wgt>
<wgt id='1889'> +7.5911651e+01 </wgt>
<wgt id='1890'> +7.7595835e+01 </wgt>
<wgt id='1891'> +7.6145168e+01 </wgt>
<wgt id='1892'> +7.6774993e+01 </wgt>
<wgt id='1893'> +7.6019283e+01 </wgt>
<wgt id='1894'> +7.6520045e+01 </wgt>
<wgt id='1895'> +7.5937655e+01 </wgt>
<wgt id='1896'> +7.6599661e+01 </wgt>
<wgt id='1897'> +7.6494635e+01 </wgt>
<wgt id='1898'> +7.6508042e+01 </wgt>
<wgt id='1899'> +7.6920237e+01 </wgt>
<wgt id='1900'> +7.6516179e+01 </wgt>
<wgt id='1901'> +7.6546668e+01 </wgt>
<wgt id='1902'> +7.6688459e+01 </wgt>
<wgt id='1903'> +7.6999415e+01 </wgt>
<wgt id='1904'> +7.6702155e+01 </wgt>
<wgt id='1905'> +7.7074025e+01 </wgt>
<wgt id='1906'> +7.6749862e+01 </wgt>
<wgt id='1907'> +7.6594114e+01 </wgt>
<wgt id='1908'> +7.6721597e+01 </wgt>
<wgt id='1909'> +7.6508330e+01 </wgt>
<wgt id='1910'> +7.6764904e+01 </wgt>
<wgt id='1911'> +7.6651754e+01 </wgt>
<wgt id='1912'> +7.6620392e+01 </wgt>
<wgt id='1913'> +7.6500185e+01 </wgt>
<wgt id='1914'> +7.6577003e+01 </wgt>
<wgt id='1915'> +7.6580432e+01 </wgt>
<wgt id='1916'> +7.6645192e+01 </wgt>
<wgt id='1917'> +7.6722292e+01 </wgt>
<wgt id='1918'> +7.6901953e+01 </wgt>
<wgt id='1919'> +7.6744527e+01 </wgt>
<wgt id='1920'> +7.6441149e+01 </wgt>
<wgt id='1921'> +7.6768151e+01 </wgt>
<wgt id='1922'> +7.6653273e+01 </wgt>
<wgt id='1923'> +7.6702676e+01 </wgt>
<wgt id='1924'> +7.6688104e+01 </wgt>
<wgt id='1925'> +7.6617755e+01 </wgt>
<wgt id='1926'> +7.6658551e+01 </wgt>
<wgt id='1927'> +7.6745374e+01 </wgt>
<wgt id='1928'> +7.6631807e+01 </wgt>
<wgt id='1929'> +7.6713704e+01 </wgt>
<wgt id='1930'> +7.6644093e+01 </wgt>
<wgt id='1931'> +7.6623657e+01 </wgt>
<wgt id='1932'> +7.6708751e+01 </wgt>
<wgt id='1933'> +7.6605235e+01 </wgt>
<wgt id='1934'> +7.6648550e+01 </wgt>
<wgt id='1935'> +7.6690725e+01 </wgt>
<wgt id='1936'> +7.6678434e+01 </wgt>
<wgt id='1937'> +7.6718272e+01 </wgt>
<wgt id='1938'> +7.6730157e+01 </wgt>
<wgt id='1939'> +7.6625322e+01 </wgt>
<wgt id='1940'> +7.6636498e+01 </wgt>
<wgt id='1941'> +7.6647569e+01 </wgt>
<wgt id='1942'> +7.6614215e+01 </wgt>
<wgt id='1943'> +7.6633426e+01 </wgt>
<wgt id='1944'> +7.6628894e+01 </wgt>
<wgt id='1945'> +7.6668578e+01 </wgt>
<wgt id='1946'> +7.6628208e+01 </wgt>
<wgt id='1947'> +7.6627829e+01 </wgt>
<wgt id='1948'> +7.6641099e+01 </wgt>
<wgt id='1949'> +7.6675933e+01 </wgt>
<wgt id='1950'> +7.6622333e+01 </wgt>
<wgt id='1951'> +7.6659283e+01 </wgt>
<wgt id='1952'> +7.6669257e+01 </wgt>
<wgt id='1953'> +7.6698160e+01 </wgt>
<wgt id='1954'> +7.6613077e+01 </wgt>
<wgt id='1955'> +7.6621514e+01 </wgt>
<wgt id='1956'> +7.6655690e+01 </wgt>
<wgt id='1957'> +7.6656878e+01 </wgt>
<wgt id='1958'> +7.6656070e+01 </wgt>
<wgt id='1959'> +7.6656107e+01 </wgt>
<wgt id='1960'> +7.6656440e+01 </wgt>
<wgt id='1961'> +7.6655962e+01 </wgt>
<wgt id='1962'> +7.6657080e+01 </wgt>
</rwgt>
</event>
<event npLO=" -1 " npNLO=" 1 ">
 7      1 +1.5146096e+02 4.08206190e+01 7.54677110e-03 1.20645630e-01
        2 -1    0    0  502    0 +0.0000000000e+00 +0.0000000000e+00 +7.2725086000e+02 7.2725086000e+02 0.0000000000e+00 0.0000e+00 9.0000e+00
       21 -1    0    0  501  502 +0.0000000000e+00 +0.0000000000e+00 -1.5073265000e+01 1.5073265000e+01 0.0000000000e+00 0.0000e+00 9.0000e+00
       23  2    1    2    0    0 -4.5025315000e+01 -6.4548885000e+01 +5.3042778000e+02 5.4426648000e+02 9.3158620000e+01 0.0000e+00 0.0000e+00
       11  1    3    3    0    0 -9.6068586000e+00 -3.1956870000e+01 +8.3872607000e+01 9.0267089000e+01 0.0000000000e+00 0.0000e+00 9.0000e+00
      -11  1    3    3    0    0 -1.7646541000e+01 +2.1512614000e+00 +3.4097009000e+02 3.4143320000e+02 0.0000000000e+00 0.0000e+00 9.0000e+00
       22  1    3    3    0    0 -1.7771915000e+01 -3.4743276000e+01 +1.0558509000e+02 1.1256619000e+02 0.0000000000e+00 0.0000e+00 9.0000e+00
        2  1    1    2  501    0 +4.5025315000e+01 +6.4548885000e+01 +1.8174981000e+02 1.9805765000e+02 0.0000000000e+00 0.0000e+00 9.0000e+00
#aMCatNLO 1  0  0  2  6 0.47974917E+01 0.00000000E+00 -9  7  0 0.00000000E+00 0.00000000E+00 0.00000000E+00 0.00000000E+00 0.00000000E+00
<rwgt>
<wgt id='1001'> +1.5147000e+02 </wgt>
<wgt id='1002'> +1.5147000e+02 </wgt>
<wgt id='1003'> +1.4426000e+02 </wgt>
<wgt id='1004'> +1.5104000e+02 </wgt>
<wgt id='1005'> +1.5359000e+02 </wgt>
<wgt id='1006'> +1.5183000e+02 </wgt>
<wgt id='1007'> +1.4700000e+02 </wgt>
<wgt id='1008'> +1.5226000e+02 </wgt>
<wgt id='1009'> +1.5177000e+02 </wgt>
<wgt id='1010'> +1.4849000e+02 </wgt>
<wgt id='1011'> +1.5078000e+02 </wgt>
<wgt id='1012'> +1.5270000e+02 </wgt>
<wgt id='1013'> +1.5575000e+02 </wgt>
<wgt id='1014'> +1.5339000e+02 </wgt>
<wgt id='1015'> +1.5400000e+02 </wgt>
<wgt id='1016'> +1.5180000e+02 </wgt>
<wgt id='1017'> +1.5175000e+02 </wgt>
<wgt id='1018'> +1.4961000e+02 </wgt>
<wgt id='1019'> +1.4865000e+02 </wgt>
<wgt id='1020'> +1.4643000e+02 </wgt>
<wgt id='1021'> +1.5051000e+02 </wgt>
<wgt id='1022'> +1.4757000e+02 </wgt>
<wgt id='1023'> +1.5393000e+02 </wgt>
<wgt id='1024'> +1.5144000e+02 </wgt>
<wgt id='1025'> +1.5913000e+02 </wgt>
<wgt id='1026'> +1.5119000e+02 </wgt>
<wgt id='1027'> +1.5249000e+02 </wgt>
<wgt id='1028'> +1.5006000e+02 </wgt>
<wgt id='1029'> +1.4713000e+02 </wgt>
<wgt id='1030'> +1.5084000e+02 </wgt>
<wgt id='1031'> +1.4880000e+02 </wgt>
<wgt id='1032'> +1.5205000e+02 </wgt>
<wgt id='1033'> +1.5182000e+02 </wgt>
<wgt id='1034'> +1.5251000e+02 </wgt>
<wgt id='1035'> +1.5191000e+02 </wgt>
<wgt id='1036'> +1.5472000e+02 </wgt>
<wgt id='1037'> +1.5390000e+02 </wgt>
<wgt id='1038'> +1.5201000e+02 </wgt>
<wgt id='1039'> +1.4927000e+02 </wgt>
<wgt id='1040'> +1.5053000e+02 </wgt>
<wgt id='1041'> +1.4832000e+02 </wgt>
<wgt id='1042'> +1.5233000e+02 </wgt>
<wgt id='1043'> +1.5219000e+02 </wgt>
<wgt id='1044'> +1.5427000e+02 </wgt>
<wgt id='1045'> +1.5368000e+02 </wgt>
<wgt id='1046'> +1.5145000e+02 </wgt>
<wgt id='1047'> +1.5303000e+02 </wgt>
<wgt id='1048'> +1.5323000e+02 </wgt>
<wgt id='1049'> +1.4949000e+02 </wgt>
<wgt id='1050'> +1.4937000e+02 </wgt>
<wgt id='1051'> +1.5043000e+02 </wgt>
<wgt id='1052'> +1.5257000e+02 </wgt>
<wgt id='1053'> +1.5305000e+02 </wgt>
<wgt id='1054'> +1.5290000e+02 </wgt>
<wgt id='1055'> +1.5465000e+02 </wgt>
<wgt id='1056'> +1.5211000e+02 </wgt>
<wgt id='1057'> +1.5242000e+02 </wgt>
<wgt id='1058'> +1.4870000e+02 </wgt>
<wgt id='1059'> +1.5277000e+02 </wgt>
<wgt id='1060'> +1.5311000e+02 </wgt>
<wgt id='1061'> +1.4991000e+02 </wgt>
<wgt id='1062'> +1.5142000e+02 </wgt>
<wgt id='1063'> +1.5098000e+02 </wgt>
<wgt id='1064'> +1.5095000e+02 </wgt>
<wgt id='1065'> +1.5541000e+02 </wgt>
<wgt id='1066'> +1.4547000e+02 </wgt>
<wgt id='1067'> +1.5325000e+02 </wgt>
<wgt id='1068'> +1.5154000e+02 </wgt>
<wgt id='1069'> +1.5466000e+02 </wgt>
<wgt id='1070'> +1.5173000e+02 </wgt>
<wgt id='1071'> +1.5094000e+02 </wgt>
<wgt id='1072'> +1.5010000e+02 </wgt>
<wgt id='1073'> +1.5434000e+02 </wgt>
<wgt id='1074'> +1.5289000e+02 </wgt>
<wgt id='1075'> +1.4889000e+02 </wgt>
<wgt id='1076'> +1.5579000e+02 </wgt>
<wgt id='1077'> +1.5046000e+02 </wgt>
<wgt id='1078'> +1.5560000e+02 </wgt>
<wgt id='1079'> +1.5361000e+02 </wgt>
<wgt id='1080'> +1.5468000e+02 </wgt>
<wgt id='1081'> +1.5073000e+02 </wgt>
<wgt id='1082'> +1.5125000e+02 </wgt>
<wgt id='1083'> +1.5393000e+02 </wgt>
<wgt id='1084'> +1.5292000e+02 </wgt>
<wgt id='1085'> +1.4691000e+02 </wgt>
<wgt id='1086'> +1.5078000e+02 </wgt>
<wgt id='1087'> +1.4895000e+02 </wgt>
<wgt id='1088'> +1.4988000e+02 </wgt>
<wgt id='1089'> +1.5368000e+02 </wgt>
<wgt id='1090'> +1.5292000e+02 </wgt>
<wgt id='1091'> +1.4893000e+02 </wgt>
<wgt id='1092'> +1.5112000e+02 </wgt>
<wgt id='1093'> +1.4858000e+02 </wgt>
<wgt id='1094'> +1.5084000e+02 </wgt>
<wgt id='1095'> +1.4829000e+02 </wgt>
<wgt id='1096'> +1.5380000e+02 </wgt>
<wgt id='1097'> +1.4722000e+02 </wgt>
<wgt id='1098'> +1.5202000e+02 </wgt>
<wgt id='1099'> +1.4952000e+02 </wgt>
<wgt id='1100'> +1.5536000e+02 </wgt>
<wgt id='1101'> +1.5135000e+02 </wgt>
<wgt id='1102'> +1.4748000e+02 </wgt>
<wgt id='1103'> +1.4991000e+02 </wgt>
<wgt id='1104'> +1.5242000e+02 </wgt>
<wgt id='1105'> +1.5146096e+02 </wgt>
<wgt id='1106'> +7.2299994e+01 </wgt>
<wgt id='1107'> +7.8881159e+01 </wgt>
<wgt id='1108'> +8.0252025e+01 </wgt>
<wgt id='1109'> +7.6587416e+01 </wgt>
<wgt id='1110'> +8.3635950e+01 </wgt>
<wgt id='1111'> +7.0020500e+01 </wgt>
<wgt id='1112'> +6.6872154e+01 </wgt>
<wgt id='1113'> +7.2897462e+01 </wgt>
<wgt id='1114'> +7.8142748e+01 </wgt>
<wgt id='1115'> +7.7914659e+01 </wgt>
<wgt id='1116'> +7.9509664e+01 </wgt>
<wgt id='1117'> +7.7304289e+01 </wgt>
<wgt id='1118'> +7.6097998e+01 </wgt>
<wgt id='1119'> +7.7776935e+01 </wgt>
<wgt id='1120'> +7.6151526e+01 </wgt>
<wgt id='1121'> +7.9574320e+01 </wgt>
<wgt id='1122'> +7.9321821e+01 </wgt>
<wgt id='1123'> +7.8114325e+01 </wgt>
<wgt id='1124'> +7.5034073e+01 </wgt>
<wgt id='1125'> +7.7883372e+01 </wgt>
<wgt id='1126'> +7.7236316e+01 </wgt>
<wgt id='1127'> +7.8358503e+01 </wgt>
<wgt id='1128'> +7.9053230e+01 </wgt>
<wgt id='1129'> +7.8876348e+01 </wgt>
<wgt id='1130'> +7.8386902e+01 </wgt>
<wgt id='1131'> +7.7862291e+01 </wgt>
<wgt id='1132'> +7.8411852e+01 </wgt>
<wgt id='1133'> +7.9335385e+01 </wgt>
<wgt id='1134'> +7.8259811e+01 </wgt>
<wgt id='1135'> +7.7519442e+01 </wgt>
<wgt id='1136'> +7.9265821e+01 </wgt>
<wgt id='1137'> +7.9494643e+01 </wgt>
<wgt id='1138'> +7.8428772e+01 </wgt>
<wgt id='1139'> +7.9816240e+01 </wgt>
<wgt id='1140'> +8.0698390e+01 </wgt>
<wgt id='1141'> +7.5890052e+01 </wgt>
<wgt id='1142'> +7.8231980e+01 </wgt>
<wgt id='1143'> +7.7845577e+01 </wgt>
<wgt id='1144'> +7.7955584e+01 </wgt>
<wgt id='1145'> +7.7876130e+01 </wgt>
<wgt id='1146'> +7.7173836e+01 </wgt>
<wgt id='1147'> +7.8143732e+01 </wgt>
<wgt id='1148'> +7.6921026e+01 </wgt>
<wgt id='1149'> +7.7172679e+01 </wgt>
<wgt id='1150'> +7.8984479e+01 </wgt>
<wgt id='1151'> +7.9583974e+01 </wgt>
<wgt id='1152'> +7.7529864e+01 </wgt>
<wgt id='1153'> +7.7901120e+01 </wgt>
<wgt id='1154'> +7.8441644e+01 </wgt>
<wgt id='1155'> +7.8516519e+01 </wgt>
<wgt id='1156'> +7.7547878e+01 </wgt>
<wgt id='1157'> +7.7145125e+01 </wgt>
<wgt id='1158'> +7.6674933e+01 </wgt>
<wgt id='1159'> +7.8748404e+01 </wgt>
<wgt id='1160'> +7.8285927e+01 </wgt>
<wgt id='1161'> +7.7812644e+01 </wgt>
<wgt id='1162'> +7.9961309e+01 </wgt>
<wgt id='1163'> +7.8875974e+01 </wgt>
<wgt id='1164'> +7.7305495e+01 </wgt>
<wgt id='1165'> +7.7017401e+01 </wgt>
<wgt id='1166'> +7.8926134e+01 </wgt>
<wgt id='1167'> +7.8086973e+01 </wgt>
<wgt id='1168'> +7.7702573e+01 </wgt>
<wgt id='1169'> +8.0349614e+01 </wgt>
<wgt id='1170'> +7.7979232e+01 </wgt>
<wgt id='1171'> +7.9718353e+01 </wgt>
<wgt id='1172'> +7.9896624e+01 </wgt>
<wgt id='1173'> +7.8919705e+01 </wgt>
<wgt id='1174'> +7.9614544e+01 </wgt>
<wgt id='1175'> +7.6860138e+01 </wgt>
<wgt id='1176'> +7.8423357e+01 </wgt>
<wgt id='1177'> +7.7954654e+01 </wgt>
<wgt id='1178'> +7.9151727e+01 </wgt>
<wgt id='1179'> +7.8993003e+01 </wgt>
<wgt id='1180'> +8.0265350e+01 </wgt>
<wgt id='1181'> +7.7640175e+01 </wgt>
<wgt id='1182'> +7.8508223e+01 </wgt>
<wgt id='1183'> +7.8528329e+01 </wgt>
<wgt id='1184'> +7.6862085e+01 </wgt>
<wgt id='1185'> +7.7908999e+01 </wgt>
<wgt id='1186'> +7.8766627e+01 </wgt>
<wgt id='1187'> +7.7516954e+01 </wgt>
<wgt id='1188'> +7.7627311e+01 </wgt>
<wgt id='1189'> +7.7859433e+01 </wgt>
<wgt id='1190'> +7.8463993e+01 </wgt>
<wgt id='1191'> +7.7025568e+01 </wgt>
<wgt id='1192'> +7.8578019e+01 </wgt>
<wgt id='1193'> +7.8002334e+01 </wgt>
<wgt id='1194'> +7.6548684e+01 </wgt>
<wgt id='1195'> +7.7121641e+01 </wgt>
<wgt id='1196'> +7.8386902e+01 </wgt>
<wgt id='1197'> +7.5069251e+01 </wgt>
<wgt id='1198'> +7.8440158e+01 </wgt>
<wgt id='1199'> +7.8618627e+01 </wgt>
<wgt id='1200'> +7.7439223e+01 </wgt>
<wgt id='1201'> +7.8466022e+01 </wgt>
<wgt id='1202'> +7.5707868e+01 </wgt>
<wgt id='1203'> +7.5228024e+01 </wgt>
<wgt id='1204'> +7.7751998e+01 </wgt>
<wgt id='1205'> +7.8663464e+01 </wgt>
<wgt id='1206'> +7.8233677e+01 </wgt>
<wgt id='1207'> +7.7926012e+01 </wgt>
<wgt id='1208'> +7.7836936e+01 </wgt>
<wgt id='1209'> +7.7802956e+01 </wgt>
<wgt id='1210'> +7.8736383e+01 </wgt>
<wgt id='1211'> +7.7198406e+01 </wgt>
<wgt id='1212'> +7.9285857e+01 </wgt>
<wgt id='1213'> +8.0457159e+01 </wgt>
<wgt id='1214'> +7.9986738e+01 </wgt>
<wgt id='1215'> +7.6072883e+01 </wgt>
<wgt id='1216'> +7.7995793e+01 </wgt>
<wgt id='1217'> +7.8158193e+01 </wgt>
<wgt id='1218'> +7.7796824e+01 </wgt>
<wgt id='1219'> +7.8137752e+01 </wgt>
<wgt id='1220'> +7.7894374e+01 </wgt>
<wgt id='1221'> +7.8072857e+01 </wgt>
<wgt id='1222'> +7.8139886e+01 </wgt>
<wgt id='1223'> +7.7925545e+01 </wgt>
<wgt id='1224'> +7.7897987e+01 </wgt>
<wgt id='1225'> +7.7745535e+01 </wgt>
<wgt id='1226'> +7.8003347e+01 </wgt>
<wgt id='1227'> +7.8149574e+01 </wgt>
<wgt id='1228'> +7.8023699e+01 </wgt>
<wgt id='1229'> +7.7700203e+01 </wgt>
<wgt id='1230'> +7.8096367e+01 </wgt>
<wgt id='1231'> +7.8067743e+01 </wgt>
<wgt id='1232'> +7.7873407e+01 </wgt>
<wgt id='1233'> +7.8034709e+01 </wgt>
<wgt id='1234'> +7.7912368e+01 </wgt>
<wgt id='1235'> +7.7941670e+01 </wgt>
<wgt id='1236'> +7.7821121e+01 </wgt>
<wgt id='1237'> +7.8089569e+01 </wgt>
<wgt id='1238'> +7.8088128e+01 </wgt>
<wgt id='1239'> +7.8207883e+01 </wgt>
<wgt id='1240'> +7.7986262e+01 </wgt>
<wgt id='1241'> +7.7792408e+01 </wgt>
<wgt id='1242'> +7.7975165e+01 </wgt>
<wgt id='1243'> +7.7925213e+01 </wgt>
<wgt id='1244'> +7.8138671e+01 </wgt>
<wgt id='1245'> +7.8280528e+01 </wgt>
<wgt id='1246'> +7.7383549e+01 </wgt>
<wgt id='1247'> +7.7622439e+01 </wgt>
<wgt id='1248'> +7.8143724e+01 </wgt>
<wgt id='1249'> +7.8068614e+01 </wgt>
<wgt id='1250'> +7.7970509e+01 </wgt>
<wgt id='1251'> +7.8116026e+01 </wgt>
<wgt id='1252'> +7.8083531e+01 </wgt>
<wgt id='1253'> +7.7819601e+01 </wgt>
<wgt id='1254'> +7.8049536e+01 </wgt>
<wgt id='1255'> +7.8020736e+01 </wgt>
<wgt id='1256'> +7.7948275e+01 </wgt>
<wgt id='1257'> +7.8075259e+01 </wgt>
<wgt id='1258'> +7.8062370e+01 </wgt>
<wgt id='1259'> +7.7894016e+01 </wgt>
<wgt id='1260'> +7.8015560e+01 </wgt>
<wgt id='1261'> +7.8064035e+01 </wgt>
<wgt id='1262'> +7.7968820e+01 </wgt>
<wgt id='1263'> +7.7989850e+01 </wgt>
<wgt id='1264'> +7.8115256e+01 </wgt>
<wgt id='1265'> +7.7971927e+01 </wgt>
<wgt id='1266'> +7.7933567e+01 </wgt>
<wgt id='1267'> +7.8021799e+01 </wgt>
<wgt id='1268'> +7.8041356e+01 </wgt>
<wgt id='1269'> +7.7884338e+01 </wgt>
<wgt id='1270'> +7.7959254e+01 </wgt>
<wgt id='1271'> +7.7979025e+01 </wgt>
<wgt id='1272'> +7.7895019e+01 </wgt>
<wgt id='1273'> +7.8045519e+01 </wgt>
<wgt id='1274'> +7.7921145e+01 </wgt>
<wgt id='1275'> +7.8019003e+01 </wgt>
<wgt id='1276'> +7.7970377e+01 </wgt>
<wgt id='1277'> +7.7984512e+01 </wgt>
<wgt id='1278'> +7.7893541e+01 </wgt>
<wgt id='1279'> +7.8047799e+01 </wgt>
<wgt id='1280'> +7.7926066e+01 </wgt>
<wgt id='1281'> +7.8047019e+01 </wgt>
<wgt id='1282'> +7.7991947e+01 </wgt>
<wgt id='1283'> +7.7871072e+01 </wgt>
<wgt id='1284'> +7.8081291e+01 </wgt>
<wgt id='1285'> +7.7927237e+01 </wgt>
<wgt id='1286'> +7.7970618e+01 </wgt>
<wgt id='1287'> +7.7969283e+01 </wgt>
<wgt id='1288'> +7.8005870e+01 </wgt>
<wgt id='1289'> +7.8001036e+01 </wgt>
<wgt id='1290'> +7.8105276e+01 </wgt>
<wgt id='1291'> +7.7951036e+01 </wgt>
<wgt id='1292'> +7.8024030e+01 </wgt>
<wgt id='1293'> +7.7976092e+01 </wgt>
<wgt id='1294'> +7.8012588e+01 </wgt>
<wgt id='1295'> +7.7974992e+01 </wgt>
<wgt id='1296'> +7.8013286e+01 </wgt>
<wgt id='1297'> +7.8086608e+01 </wgt>
<wgt id='1298'> +7.7950132e+01 </wgt>
<wgt id='1299'> +7.8018576e+01 </wgt>
<wgt id='1300'> +7.7931937e+01 </wgt>
<wgt id='1301'> +7.7964509e+01 </wgt>
<wgt id='1302'> +7.8001902e+01 </wgt>
<wgt id='1303'> +7.8031464e+01 </wgt>
<wgt id='1304'> +7.7950479e+01 </wgt>
<wgt id='1305'> +7.7961983e+01 </wgt>
<wgt id='1306'> +7.7993407e+01 </wgt>
<wgt id='1307'> +7.8034007e+01 </wgt>
<wgt id='1308'> +7.8012148e+01 </wgt>
<wgt id='1309'> +7.7975159e+01 </wgt>
<wgt id='1310'> +7.8009988e+01 </wgt>
<wgt id='1311'> +7.8024919e+01 </wgt>
<wgt id='1312'> +7.7929584e+01 </wgt>
<wgt id='1313'> +7.7997545e+01 </wgt>
<wgt id='1314'> +7.8024428e+01 </wgt>
<wgt id='1315'> +7.7953325e+01 </wgt>
<wgt id='1316'> +7.7985700e+01 </wgt>
<wgt id='1317'> +7.6949443e+01 </wgt>
<wgt id='1318'> +7.9266366e+01 </wgt>
<wgt id='1319'> +8.2745254e+01 </wgt>
<wgt id='1320'> +7.8438246e+01 </wgt>
<wgt id='1321'> +7.8579284e+01 </wgt>
<wgt id='1322'> +7.8647590e+01 </wgt>
<wgt id='1323'> +7.9005273e+01 </wgt>
<wgt id='1324'> +7.8704283e+01 </wgt>
<wgt id='1325'> +7.8186654e+01 </wgt>
<wgt id='1326'> +7.8864494e+01 </wgt>
<wgt id='1327'> +7.7834322e+01 </wgt>
<wgt id='1328'> +7.9274023e+01 </wgt>
<wgt id='1329'> +7.7163870e+01 </wgt>
<wgt id='1330'> +8.0052016e+01 </wgt>
<wgt id='1331'> +7.9518674e+01 </wgt>
<wgt id='1332'> +7.7875689e+01 </wgt>
<wgt id='1333'> +7.6608094e+01 </wgt>
<wgt id='1334'> +7.9387724e+01 </wgt>
<wgt id='1335'> +7.8337069e+01 </wgt>
<wgt id='1336'> +7.8371479e+01 </wgt>
<wgt id='1337'> +7.8857162e+01 </wgt>
<wgt id='1338'> +7.7947472e+01 </wgt>
<wgt id='1339'> +7.9397424e+01 </wgt>
<wgt id='1340'> +7.7398347e+01 </wgt>
<wgt id='1341'> +7.8282715e+01 </wgt>
<wgt id='1342'> +7.8641114e+01 </wgt>
<wgt id='1343'> +7.8176657e+01 </wgt>
<wgt id='1344'> +7.8741435e+01 </wgt>
<wgt id='1345'> +7.7230420e+01 </wgt>
<wgt id='1346'> +7.9579425e+01 </wgt>
<wgt id='1347'> +7.8335225e+01 </wgt>
<wgt id='1348'> +7.8564295e+01 </wgt>
<wgt id='1349'> +7.7777413e+01 </wgt>
<wgt id='1350'> +7.8665720e+01 </wgt>
<wgt id='1351'> +7.8467232e+01 </wgt>
<wgt id='1352'> +7.8401414e+01 </wgt>
<wgt id='1353'> +7.8832373e+01 </wgt>
<wgt id='1354'> +7.7569642e+01 </wgt>
<wgt id='1355'> +7.9162629e+01 </wgt>
<wgt id='1356'> +7.7732416e+01 </wgt>
<wgt id='1357'> +7.8565058e+01 </wgt>
<wgt id='1358'> +7.8096443e+01 </wgt>
<wgt id='1359'> +7.7939954e+01 </wgt>
<wgt id='1360'> +7.8595359e+01 </wgt>
<wgt id='1361'> +7.9073404e+01 </wgt>
<wgt id='1362'> +7.7814329e+01 </wgt>
<wgt id='1363'> +7.8480856e+01 </wgt>
<wgt id='1364'> +7.8096683e+01 </wgt>
<wgt id='1365'> +7.8346794e+01 </wgt>
<wgt id='1366'> +7.8067535e+01 </wgt>
<wgt id='1367'> +7.8360747e+01 </wgt>
<wgt id='1368'> +7.8883341e+01 </wgt>
<wgt id='1369'> +7.8944254e+01 </wgt>
<wgt id='1370'> +7.8006765e+01 </wgt>
<wgt id='1371'> +7.8555532e+01 </wgt>
<wgt id='1372'> +7.9017860e+01 </wgt>
<wgt id='1373'> +7.7182017e+01 </wgt>
<wgt id='1374'> +7.8094467e+01 </wgt>
<wgt id='1375'> +7.8280515e+01 </wgt>
<wgt id='1376'> +7.8502486e+01 </wgt>
<wgt id='1377'> +7.7239627e+01 </wgt>
<wgt id='1378'> +7.9473804e+01 </wgt>
<wgt id='1379'> +7.6772577e+01 </wgt>
<wgt id='1380'> +7.5871396e+01 </wgt>
<wgt id='1381'> +7.7538730e+01 </wgt>
<wgt id='1382'> +7.8545815e+01 </wgt>
<wgt id='1383'> +7.6178183e+01 </wgt>
<wgt id='1384'> +7.6330721e+01 </wgt>
<wgt id='1385'> +8.9059966e+01 </wgt>
<wgt id='1386'> +8.9151706e+01 </wgt>
<wgt id='1387'> +8.8958252e+01 </wgt>
<wgt id='1388'> +8.8862420e+01 </wgt>
<wgt id='1389'> +8.9400622e+01 </wgt>
<wgt id='1390'> +8.9077852e+01 </wgt>
<wgt id='1391'> +8.9043669e+01 </wgt>
<wgt id='1392'> +8.9666105e+01 </wgt>
<wgt id='1393'> +8.8642558e+01 </wgt>
<wgt id='1394'> +8.9018570e+01 </wgt>
<wgt id='1395'> +8.9108787e+01 </wgt>
<wgt id='1396'> +8.8728756e+01 </wgt>
<wgt id='1397'> +8.9238016e+01 </wgt>
<wgt id='1398'> +8.8689851e+01 </wgt>
<wgt id='1399'> +8.9334609e+01 </wgt>
<wgt id='1400'> +8.9462289e+01 </wgt>
<wgt id='1401'> +8.8746779e+01 </wgt>
<wgt id='1402'> +8.9458789e+01 </wgt>
<wgt id='1403'> +8.8880667e+01 </wgt>
<wgt id='1404'> +8.7588423e+01 </wgt>
<wgt id='1405'> +8.9779148e+01 </wgt>
<wgt id='1406'> +8.8978736e+01 </wgt>
<wgt id='1407'> +8.9207469e+01 </wgt>
<wgt id='1408'> +8.9196515e+01 </wgt>
<wgt id='1409'> +8.8788646e+01 </wgt>
<wgt id='1410'> +8.9215155e+01 </wgt>
<wgt id='1411'> +8.8643262e+01 </wgt>
<wgt id='1412'> +8.9546844e+01 </wgt>
<wgt id='1413'> +8.8348784e+01 </wgt>
<wgt id='1414'> +8.8976284e+01 </wgt>
<wgt id='1415'> +8.9028654e+01 </wgt>
<wgt id='1416'> +8.9215489e+01 </wgt>
<wgt id='1417'> +8.9036592e+01 </wgt>
<wgt id='1418'> +8.8924737e+01 </wgt>
<wgt id='1419'> +8.9317107e+01 </wgt>
<wgt id='1420'> +8.8755472e+01 </wgt>
<wgt id='1421'> +8.9077688e+01 </wgt>
<wgt id='1422'> +8.9185388e+01 </wgt>
<wgt id='1423'> +8.8936623e+01 </wgt>
<wgt id='1424'> +8.9197090e+01 </wgt>
<wgt id='1425'> +8.8661772e+01 </wgt>
<wgt id='1426'> +8.9120635e+01 </wgt>
<wgt id='1427'> +8.9013675e+01 </wgt>
<wgt id='1428'> +8.9163727e+01 </wgt>
<wgt id='1429'> +8.8649982e+01 </wgt>
<wgt id='1430'> +8.9138838e+01 </wgt>
<wgt id='1431'> +8.9042709e+01 </wgt>
<wgt id='1432'> +8.9082493e+01 </wgt>
<wgt id='1433'> +8.9100913e+01 </wgt>
<wgt id='1434'> +8.9217389e+01 </wgt>
<wgt id='1435'> +8.9468840e+01 </wgt>
<wgt id='1436'> +7.7659201e+01 </wgt>
<wgt id='1437'> +7.7657275e+01 </wgt>
<wgt id='1438'> +7.7627200e+01 </wgt>
<wgt id='1439'> +7.7657432e+01 </wgt>
<wgt id='1440'> +7.7763538e+01 </wgt>
<wgt id='1441'> +7.7766864e+01 </wgt>
<wgt id='1442'> +7.7506658e+01 </wgt>
<wgt id='1443'> +7.7828905e+01 </wgt>
<wgt id='1444'> +7.7509999e+01 </wgt>
<wgt id='1445'> +7.7408994e+01 </wgt>
<wgt id='1446'> +7.7814068e+01 </wgt>
<wgt id='1447'> +7.7789197e+01 </wgt>
<wgt id='1448'> +7.7641965e+01 </wgt>
<wgt id='1449'> +7.7830562e+01 </wgt>
<wgt id='1450'> +7.7720242e+01 </wgt>
<wgt id='1451'> +7.7759476e+01 </wgt>
<wgt id='1452'> +7.7394589e+01 </wgt>
<wgt id='1453'> +7.7566065e+01 </wgt>
<wgt id='1454'> +7.7730667e+01 </wgt>
<wgt id='1455'> +7.7464852e+01 </wgt>
<wgt id='1456'> +7.7464748e+01 </wgt>
<wgt id='1457'> +7.7616948e+01 </wgt>
<wgt id='1458'> +7.7568800e+01 </wgt>
<wgt id='1459'> +7.7493536e+01 </wgt>
<wgt id='1460'> +7.7796398e+01 </wgt>
<wgt id='1461'> +7.7988923e+01 </wgt>
<wgt id='1462'> +7.7795460e+01 </wgt>
<wgt id='1463'> +7.7715536e+01 </wgt>
<wgt id='1464'> +7.7887106e+01 </wgt>
<wgt id='1465'> +7.9722758e+01 </wgt>
<wgt id='1466'> +7.6810519e+01 </wgt>
<wgt id='1467'> +7.6518979e+01 </wgt>
<wgt id='1468'> +7.6550929e+01 </wgt>
<wgt id='1469'> +7.6956138e+01 </wgt>
<wgt id='1470'> +7.6732013e+01 </wgt>
<wgt id='1471'> +7.6970775e+01 </wgt>
<wgt id='1472'> +7.6271426e+01 </wgt>
<wgt id='1473'> +7.7612906e+01 </wgt>
<wgt id='1474'> +7.7740618e+01 </wgt>
<wgt id='1475'> +7.6302924e+01 </wgt>
<wgt id='1476'> +7.6677038e+01 </wgt>
<wgt id='1477'> +7.6747689e+01 </wgt>
<wgt id='1478'> +7.6463503e+01 </wgt>
<wgt id='1479'> +7.7282286e+01 </wgt>
<wgt id='1480'> +7.6795163e+01 </wgt>
<wgt id='1481'> +7.6691971e+01 </wgt>
<wgt id='1482'> +7.6784152e+01 </wgt>
<wgt id='1483'> +7.6571028e+01 </wgt>
<wgt id='1484'> +7.7158498e+01 </wgt>
<wgt id='1485'> +7.6648532e+01 </wgt>
<wgt id='1486'> +7.6903806e+01 </wgt>
<wgt id='1487'> +7.6782049e+01 </wgt>
<wgt id='1488'> +7.6464041e+01 </wgt>
<wgt id='1489'> +7.7153814e+01 </wgt>
<wgt id='1490'> +7.6738810e+01 </wgt>
<wgt id='1491'> +7.7065885e+01 </wgt>
<wgt id='1492'> +7.6800498e+01 </wgt>
<wgt id='1493'> +7.6639629e+01 </wgt>
<wgt id='1494'> +7.7065695e+01 </wgt>
<wgt id='1495'> +7.6708093e+01 </wgt>
<wgt id='1496'> +7.6583724e+01 </wgt>
<wgt id='1497'> +7.6839885e+01 </wgt>
<wgt id='1498'> +7.6709925e+01 </wgt>
<wgt id='1499'> +7.6541102e+01 </wgt>
<wgt id='1500'> +7.6860087e+01 </wgt>
<wgt id='1501'> +7.7036971e+01 </wgt>
<wgt id='1502'> +7.6678438e+01 </wgt>
<wgt id='1503'> +7.6661726e+01 </wgt>
<wgt id='1504'> +7.6808186e+01 </wgt>
<wgt id='1505'> +7.6930328e+01 </wgt>
<wgt id='1506'> +7.6871276e+01 </wgt>
<wgt id='1507'> +7.6923128e+01 </wgt>
<wgt id='1508'> +7.6785630e+01 </wgt>
<wgt id='1509'> +7.6730411e+01 </wgt>
<wgt id='1510'> +7.6949225e+01 </wgt>
<wgt id='1511'> +7.6882983e+01 </wgt>
<wgt id='1512'> +7.6759062e+01 </wgt>
<wgt id='1513'> +7.6696032e+01 </wgt>
<wgt id='1514'> +7.6678211e+01 </wgt>
<wgt id='1515'> +7.6809057e+01 </wgt>
<wgt id='1516'> +7.6804501e+01 </wgt>
<wgt id='1517'> +7.6738160e+01 </wgt>
<wgt id='1518'> +7.6802445e+01 </wgt>
<wgt id='1519'> +7.6815231e+01 </wgt>
<wgt id='1520'> +7.6842426e+01 </wgt>
<wgt id='1521'> +7.6758047e+01 </wgt>
<wgt id='1522'> +7.6911572e+01 </wgt>
<wgt id='1523'> +7.6770934e+01 </wgt>
<wgt id='1524'> +7.6850308e+01 </wgt>
<wgt id='1525'> +7.6735653e+01 </wgt>
<wgt id='1526'> +7.6704229e+01 </wgt>
<wgt id='1527'> +7.6728815e+01 </wgt>
<wgt id='1528'> +7.6717308e+01 </wgt>
<wgt id='1529'> +7.6795389e+01 </wgt>
<wgt id='1530'> +7.6748030e+01 </wgt>
<wgt id='1531'> +7.6775912e+01 </wgt>
<wgt id='1532'> +7.6724029e+01 </wgt>
<wgt id='1533'> +7.6757144e+01 </wgt>
<wgt id='1534'> +7.6803640e+01 </wgt>
<wgt id='1535'> +7.6815845e+01 </wgt>
<wgt id='1536'> +7.6826102e+01 </wgt>
<wgt id='1537'> +7.6794684e+01 </wgt>
<wgt id='1538'> +7.6779082e+01 </wgt>
<wgt id='1539'> +7.6797305e+01 </wgt>
<wgt id='1540'> +7.6786384e+01 </wgt>
<wgt id='1541'> +7.6828382e+01 </wgt>
<wgt id='1542'> +7.6794843e+01 </wgt>
<wgt id='1543'> +7.6783743e+01 </wgt>
<wgt id='1544'> +7.6802854e+01 </wgt>
<wgt id='1545'> +7.6879097e+01 </wgt>
<wgt id='1546'> +7.6798587e+01 </wgt>
<wgt id='1547'> +7.6799462e+01 </wgt>
<wgt id='1548'> +7.6766027e+01 </wgt>
<wgt id='1549'> +7.6824571e+01 </wgt>
<wgt id='1550'> +7.6827930e+01 </wgt>
<wgt id='1551'> +7.6847557e+01 </wgt>
<wgt id='1552'> +7.6842862e+01 </wgt>
<wgt id='1553'> +7.6797837e+01 </wgt>
<wgt id='1554'> +7.6758772e+01 </wgt>
<wgt id='1555'> +7.6829898e+01 </wgt>
<wgt id='1556'> +7.6784357e+01 </wgt>
<wgt id='1557'> +7.6806424e+01 </wgt>
<wgt id='1558'> +7.6814017e+01 </wgt>
<wgt id='1559'> +7.6796813e+01 </wgt>
<wgt id='1560'> +7.6824339e+01 </wgt>
<wgt id='1561'> +7.6809999e+01 </wgt>
<wgt id='1562'> +7.6809936e+01 </wgt>
<wgt id='1563'> +7.6807211e+01 </wgt>
<wgt id='1564'> +7.6823604e+01 </wgt>
<wgt id='1565'> +7.6809339e+01 </wgt>
<wgt id='1566'> +7.6815712e+01 </wgt>
<wgt id='1567'> +7.5786655e+01 </wgt>
<wgt id='1568'> +7.7695351e+01 </wgt>
<wgt id='1569'> +7.6439253e+01 </wgt>
<wgt id='1570'> +7.6596285e+01 </wgt>
<wgt id='1571'> +7.6362438e+01 </wgt>
<wgt id='1572'> +7.6382662e+01 </wgt>
<wgt id='1573'> +7.6487398e+01 </wgt>
<wgt id='1574'> +7.6404194e+01 </wgt>
<wgt id='1575'> +7.6587678e+01 </wgt>
<wgt id='1576'> +7.6903779e+01 </wgt>
<wgt id='1577'> +7.6730627e+01 </wgt>
<wgt id='1578'> +7.6436912e+01 </wgt>
<wgt id='1579'> +7.6630933e+01 </wgt>
<wgt id='1580'> +7.6619315e+01 </wgt>
<wgt id='1581'> +7.5703775e+01 </wgt>
<wgt id='1582'> +7.6223373e+01 </wgt>
<wgt id='1583'> +7.5949268e+01 </wgt>
<wgt id='1584'> +7.6306129e+01 </wgt>
<wgt id='1585'> +7.6431637e+01 </wgt>
<wgt id='1586'> +7.6520790e+01 </wgt>
<wgt id='1587'> +7.6445972e+01 </wgt>
<wgt id='1588'> +7.6005524e+01 </wgt>
<wgt id='1589'> +7.6626843e+01 </wgt>
<wgt id='1590'> +7.6618633e+01 </wgt>
<wgt id='1591'> +7.6264670e+01 </wgt>
<wgt id='1592'> +7.6704173e+01 </wgt>
<wgt id='1593'> +7.6782175e+01 </wgt>
<wgt id='1594'> +7.6414514e+01 </wgt>
<wgt id='1595'> +7.6381676e+01 </wgt>
<wgt id='1596'> +7.6496070e+01 </wgt>
<wgt id='1597'> +7.6422472e+01 </wgt>
<wgt id='1598'> +7.6389205e+01 </wgt>
<wgt id='1599'> +7.6514005e+01 </wgt>
<wgt id='1600'> +7.6690806e+01 </wgt>
<wgt id='1601'> +7.6642797e+01 </wgt>
<wgt id='1602'> +7.6810063e+01 </wgt>
<wgt id='1603'> +7.6627499e+01 </wgt>
<wgt id='1604'> +7.6303220e+01 </wgt>
<wgt id='1605'> +7.6536117e+01 </wgt>
<wgt id='1606'> +7.6407768e+01 </wgt>
<wgt id='1607'> +7.6495556e+01 </wgt>
<wgt id='1608'> +7.6401998e+01 </wgt>
<wgt id='1609'> +7.6353580e+01 </wgt>
<wgt id='1610'> +7.6436753e+01 </wgt>
<wgt id='1611'> +7.6500277e+01 </wgt>
<wgt id='1612'> +7.6236887e+01 </wgt>
<wgt id='1613'> +7.6509843e+01 </wgt>
<wgt id='1614'> +7.6325239e+01 </wgt>
<wgt id='1615'> +7.6467335e+01 </wgt>
<wgt id='1616'> +7.6386456e+01 </wgt>
<wgt id='1617'> +7.6609479e+01 </wgt>
<wgt id='1618'> +7.6344091e+01 </wgt>
<wgt id='1619'> +7.6508555e+01 </wgt>
<wgt id='1620'> +7.6457767e+01 </wgt>
<wgt id='1621'> +7.6371496e+01 </wgt>
<wgt id='1622'> +7.6451287e+01 </wgt>
<wgt id='1623'> +7.6397311e+01 </wgt>
<wgt id='1624'> +7.6448653e+01 </wgt>
<wgt id='1625'> +7.6436163e+01 </wgt>
<wgt id='1626'> +7.6380964e+01 </wgt>
<wgt id='1627'> +7.6350090e+01 </wgt>
<wgt id='1628'> +7.6450503e+01 </wgt>
<wgt id='1629'> +7.6388103e+01 </wgt>
<wgt id='1630'> +7.6467772e+01 </wgt>
<wgt id='1631'> +7.6455025e+01 </wgt>
<wgt id='1632'> +7.6451060e+01 </wgt>
<wgt id='1633'> +7.6323031e+01 </wgt>
<wgt id='1634'> +7.6475136e+01 </wgt>
<wgt id='1635'> +7.6486807e+01 </wgt>
<wgt id='1636'> +7.6470019e+01 </wgt>
<wgt id='1637'> +7.6467282e+01 </wgt>
<wgt id='1638'> +7.6480082e+01 </wgt>
<wgt id='1639'> +7.6463862e+01 </wgt>
<wgt id='1640'> +7.6495602e+01 </wgt>
<wgt id='1641'> +7.6473641e+01 </wgt>
<wgt id='1642'> +7.6444132e+01 </wgt>
<wgt id='1643'> +7.6422763e+01 </wgt>
<wgt id='1644'> +7.6412441e+01 </wgt>
<wgt id='1645'> +7.6403110e+01 </wgt>
<wgt id='1646'> +7.6474180e+01 </wgt>
<wgt id='1647'> +7.6416246e+01 </wgt>
<wgt id='1648'> +7.6461964e+01 </wgt>
<wgt id='1649'> +7.6484430e+01 </wgt>
<wgt id='1650'> +7.6447634e+01 </wgt>
<wgt id='1651'> +7.6461790e+01 </wgt>
<wgt id='1652'> +7.6447211e+01 </wgt>
<wgt id='1653'> +7.6433416e+01 </wgt>
<wgt id='1654'> +7.6410479e+01 </wgt>
<wgt id='1655'> +7.6479654e+01 </wgt>
<wgt id='1656'> +7.6387250e+01 </wgt>
<wgt id='1657'> +7.6423029e+01 </wgt>
<wgt id='1658'> +7.6431240e+01 </wgt>
<wgt id='1659'> +7.6470785e+01 </wgt>
<wgt id='1660'> +7.6417629e+01 </wgt>
<wgt id='1661'> +7.6436517e+01 </wgt>
<wgt id='1662'> +7.6425194e+01 </wgt>
<wgt id='1663'> +7.6436581e+01 </wgt>
<wgt id='1664'> +7.6433861e+01 </wgt>
<wgt id='1665'> +7.6419852e+01 </wgt>
<wgt id='1666'> +7.6446169e+01 </wgt>
<wgt id='1667'> +7.6455473e+01 </wgt>
<wgt id='1668'> +7.6444805e+01 </wgt>
<wgt id='1669'> +7.6431528e+01 </wgt>
<wgt id='1670'> +7.5519125e+01 </wgt>
<wgt id='1671'> +7.7085087e+01 </wgt>
<wgt id='1672'> +7.6809243e+01 </wgt>
<wgt id='1673'> +7.6220568e+01 </wgt>
<wgt id='1674'> +7.6522686e+01 </wgt>
<wgt id='1675'> +7.6808542e+01 </wgt>
<wgt id='1676'> +7.7880682e+01 </wgt>
<wgt id='1677'> +7.7376992e+01 </wgt>
<wgt id='1678'> +7.6850127e+01 </wgt>
<wgt id='1679'> +7.6751294e+01 </wgt>
<wgt id='1680'> +7.6945956e+01 </wgt>
<wgt id='1681'> +7.6706407e+01 </wgt>
<wgt id='1682'> +7.6832387e+01 </wgt>
<wgt id='1683'> +7.6965708e+01 </wgt>
<wgt id='1684'> +7.7145543e+01 </wgt>
<wgt id='1685'> +7.6763291e+01 </wgt>
<wgt id='1686'> +7.6881987e+01 </wgt>
<wgt id='1687'> +7.7026936e+01 </wgt>
<wgt id='1688'> +7.6921882e+01 </wgt>
<wgt id='1689'> +7.6042562e+01 </wgt>
<wgt id='1690'> +7.6812126e+01 </wgt>
<wgt id='1691'> +7.7007034e+01 </wgt>
<wgt id='1692'> +7.7061958e+01 </wgt>
<wgt id='1693'> +7.6646247e+01 </wgt>
<wgt id='1694'> +7.6634742e+01 </wgt>
<wgt id='1695'> +7.6838236e+01 </wgt>
<wgt id='1696'> +7.6586747e+01 </wgt>
<wgt id='1697'> +7.6915298e+01 </wgt>
<wgt id='1698'> +7.6602452e+01 </wgt>
<wgt id='1699'> +7.6920221e+01 </wgt>
<wgt id='1700'> +7.6681347e+01 </wgt>
<wgt id='1701'> +7.6855683e+01 </wgt>
<wgt id='1702'> +7.6867391e+01 </wgt>
<wgt id='1703'> +7.5786655e+01 </wgt>
<wgt id='1704'> +7.7695351e+01 </wgt>
<wgt id='1705'> +7.6436738e+01 </wgt>
<wgt id='1706'> +7.6870483e+01 </wgt>
<wgt id='1707'> +7.6273596e+01 </wgt>
<wgt id='1708'> +7.6375570e+01 </wgt>
<wgt id='1709'> +7.6032897e+01 </wgt>
<wgt id='1710'> +7.5647488e+01 </wgt>
<wgt id='1711'> +7.6443848e+01 </wgt>
<wgt id='1712'> +7.6360369e+01 </wgt>
<wgt id='1713'> +7.6271038e+01 </wgt>
<wgt id='1714'> +7.6126080e+01 </wgt>
<wgt id='1715'> +7.6996837e+01 </wgt>
<wgt id='1716'> +7.6323026e+01 </wgt>
<wgt id='1717'> +7.6442365e+01 </wgt>
<wgt id='1718'> +7.6505000e+01 </wgt>
<wgt id='1719'> +7.6375394e+01 </wgt>
<wgt id='1720'> +7.6285891e+01 </wgt>
<wgt id='1721'> +7.6341305e+01 </wgt>
<wgt id='1722'> +7.6250859e+01 </wgt>
<wgt id='1723'> +7.6469243e+01 </wgt>
<wgt id='1724'> +7.6572445e+01 </wgt>
<wgt id='1725'> +7.5979691e+01 </wgt>
<wgt id='1726'> +7.6435340e+01 </wgt>
<wgt id='1727'> +7.6830588e+01 </wgt>
<wgt id='1728'> +7.6384022e+01 </wgt>
<wgt id='1729'> +7.6474500e+01 </wgt>
<wgt id='1730'> +7.6361526e+01 </wgt>
<wgt id='1731'> +7.6586952e+01 </wgt>
<wgt id='1732'> +7.6491764e+01 </wgt>
<wgt id='1733'> +7.6517372e+01 </wgt>
<wgt id='1734'> +7.6513163e+01 </wgt>
<wgt id='1735'> +7.6596642e+01 </wgt>
<wgt id='1736'> +7.5519125e+01 </wgt>
<wgt id='1737'> +7.7085087e+01 </wgt>
<wgt id='1738'> +8.4848747e+01 </wgt>
<wgt id='1739'> +8.4837065e+01 </wgt>
<wgt id='1740'> +8.4860214e+01 </wgt>
<wgt id='1741'> +8.4907364e+01 </wgt>
<wgt id='1742'> +8.4789782e+01 </wgt>
<wgt id='1743'> +8.4781137e+01 </wgt>
<wgt id='1744'> +8.4915549e+01 </wgt>
<wgt id='1745'> +8.4772549e+01 </wgt>
<wgt id='1746'> +8.4924146e+01 </wgt>
<wgt id='1747'> +8.5275104e+01 </wgt>
<wgt id='1748'> +8.4422819e+01 </wgt>
<wgt id='1749'> +8.4919404e+01 </wgt>
<wgt id='1750'> +8.4755847e+01 </wgt>
<wgt id='1751'> +8.4488112e+01 </wgt>
<wgt id='1752'> +8.5207237e+01 </wgt>
<wgt id='1753'> +8.4679973e+01 </wgt>
<wgt id='1754'> +8.5051925e+01 </wgt>
<wgt id='1755'> +8.4699974e+01 </wgt>
<wgt id='1756'> +8.4897926e+01 </wgt>
<wgt id='1757'> +8.4745538e+01 </wgt>
<wgt id='1758'> +8.4982417e+01 </wgt>
<wgt id='1759'> +8.5188399e+01 </wgt>
<wgt id='1760'> +8.4462042e+01 </wgt>
<wgt id='1761'> +8.4308268e+01 </wgt>
<wgt id='1762'> +8.5117313e+01 </wgt>
<wgt id='1763'> +8.5391294e+01 </wgt>
<wgt id='1764'> +8.4373767e+01 </wgt>
<wgt id='1765'> +8.4408176e+01 </wgt>
<wgt id='1766'> +8.5149973e+01 </wgt>
<wgt id='1767'> +8.4848747e+01 </wgt>
<wgt id='1768'> +8.4624989e+01 </wgt>
<wgt id='1769'> +8.5115648e+01 </wgt>
<wgt id='1770'> +8.4580450e+01 </wgt>
<wgt id='1771'> +8.5037241e+01 </wgt>
<wgt id='1772'> +8.5413029e+01 </wgt>
<wgt id='1773'> +8.4379587e+01 </wgt>
<wgt id='1774'> +8.4680018e+01 </wgt>
<wgt id='1775'> +8.5021438e+01 </wgt>
<wgt id='1776'> +8.4512305e+01 </wgt>
<wgt id='1777'> +8.5218431e+01 </wgt>
<wgt id='1778'> +8.4802414e+01 </wgt>
<wgt id='1779'> +8.5231663e+01 </wgt>
<wgt id='1780'> +8.5425912e+01 </wgt>
<wgt id='1781'> +8.2875823e+01 </wgt>
<wgt id='1782'> +8.2889839e+01 </wgt>
<wgt id='1783'> +8.2888655e+01 </wgt>
<wgt id='1784'> +8.2967446e+01 </wgt>
<wgt id='1785'> +8.2810927e+01 </wgt>
<wgt id='1786'> +8.2870809e+01 </wgt>
<wgt id='1787'> +8.2906709e+01 </wgt>
<wgt id='1788'> +8.2784153e+01 </wgt>
<wgt id='1789'> +8.2992695e+01 </wgt>
<wgt id='1790'> +8.3187215e+01 </wgt>
<wgt id='1791'> +8.2589188e+01 </wgt>
<wgt id='1792'> +8.3091533e+01 </wgt>
<wgt id='1793'> +8.2686212e+01 </wgt>
<wgt id='1794'> +8.2502915e+01 </wgt>
<wgt id='1795'> +8.3279219e+01 </wgt>
<wgt id='1796'> +8.2786667e+01 </wgt>
<wgt id='1797'> +8.3084485e+01 </wgt>
<wgt id='1798'> +8.3006868e+01 </wgt>
<wgt id='1799'> +8.2757593e+01 </wgt>
<wgt id='1800'> +8.2958390e+01 </wgt>
<wgt id='1801'> +8.2815180e+01 </wgt>
<wgt id='1802'> +8.2225365e+01 </wgt>
<wgt id='1803'> +8.3497464e+01 </wgt>
<wgt id='1804'> +8.3188585e+01 </wgt>
<wgt id='1805'> +8.2590815e+01 </wgt>
<wgt id='1806'> +8.2562814e+01 </wgt>
<wgt id='1807'> +8.3024723e+01 </wgt>
<wgt id='1808'> +8.2583973e+01 </wgt>
<wgt id='1809'> +8.3006114e+01 </wgt>
<wgt id='1810'> +8.2870713e+01 </wgt>
<wgt id='1811'> +8.2716290e+01 </wgt>
<wgt id='1812'> +8.2941040e+01 </wgt>
<wgt id='1813'> +8.2649609e+01 </wgt>
<wgt id='1814'> +8.2986825e+01 </wgt>
<wgt id='1815'> +8.3225252e+01 </wgt>
<wgt id='1816'> +8.2253771e+01 </wgt>
<wgt id='1817'> +8.2720355e+01 </wgt>
<wgt id='1818'> +8.3243387e+01 </wgt>
<wgt id='1819'> +8.1789205e+01 </wgt>
<wgt id='1820'> +8.3374681e+01 </wgt>
<wgt id='1821'> +8.1830866e+01 </wgt>
<wgt id='1822'> +8.3986453e+01 </wgt>
<wgt id='1823'> +8.2025273e+01 </wgt>
<wgt id='1824'> +7.7912541e+01 </wgt>
<wgt id='1825'> +7.7901202e+01 </wgt>
<wgt id='1826'> +7.7889918e+01 </wgt>
<wgt id='1827'> +7.7878617e+01 </wgt>
<wgt id='1828'> +7.7867360e+01 </wgt>
<wgt id='1829'> +7.7856049e+01 </wgt>
<wgt id='1830'> +7.7844773e+01 </wgt>
<wgt id='1831'> +7.7833473e+01 </wgt>
<wgt id='1832'> +7.7822195e+01 </wgt>
<wgt id='1833'> +7.7810898e+01 </wgt>
<wgt id='1834'> +7.7799602e+01 </wgt>
<wgt id='1835'> +7.7788363e+01 </wgt>
<wgt id='1836'> +7.7776996e+01 </wgt>
<wgt id='1837'> +7.7765670e+01 </wgt>
<wgt id='1838'> +7.7754374e+01 </wgt>
<wgt id='1839'> +7.7743125e+01 </wgt>
<wgt id='1840'> +7.7731830e+01 </wgt>
<wgt id='1841'> +7.7720532e+01 </wgt>
<wgt id='1842'> +7.7709253e+01 </wgt>
<wgt id='1843'> +7.7697877e+01 </wgt>
<wgt id='1844'> +7.7686701e+01 </wgt>
<wgt id='1845'> +7.7675433e+01 </wgt>
<wgt id='1846'> +7.7664155e+01 </wgt>
<wgt id='1847'> +7.7652840e+01 </wgt>
<wgt id='1848'> +7.7641531e+01 </wgt>
<wgt id='1849'> +7.7630231e+01 </wgt>
<wgt id='1850'> +7.7618972e+01 </wgt>
<wgt id='1851'> +7.7607654e+01 </wgt>
<wgt id='1852'> +7.7596434e+01 </wgt>
<wgt id='1853'> +7.7585085e+01 </wgt>
<wgt id='1854'> +7.7573777e+01 </wgt>
<wgt id='1855'> +7.5851496e+01 </wgt>
<wgt id='1856'> +7.5999984e+01 </wgt>
<wgt id='1857'> +7.5772484e+01 </wgt>
<wgt id='1858'> +7.5796832e+01 </wgt>
<wgt id='1859'> +7.5897779e+01 </wgt>
<wgt id='1860'> +7.5817013e+01 </wgt>
<wgt id='1861'> +7.6004334e+01 </wgt>
<wgt id='1862'> +7.6316673e+01 </wgt>
<wgt id='1863'> +7.6140347e+01 </wgt>
<wgt id='1864'> +7.5850302e+01 </wgt>
<wgt id='1865'> +7.6040779e+01 </wgt>
<wgt id='1866'> +7.6038187e+01 </wgt>
<wgt id='1867'> +7.5125860e+01 </wgt>
<wgt id='1868'> +7.5640893e+01 </wgt>
<wgt id='1869'> +7.5363612e+01 </wgt>
<wgt id='1870'> +7.5707818e+01 </wgt>
<wgt id='1871'> +7.5851570e+01 </wgt>
<wgt id='1872'> +7.5929028e+01 </wgt>
<wgt id='1873'> +7.5856258e+01 </wgt>
<wgt id='1874'> +7.5427054e+01 </wgt>
<wgt id='1875'> +7.6043812e+01 </wgt>
<wgt id='1876'> +7.6024196e+01 </wgt>
<wgt id='1877'> +7.5678437e+01 </wgt>
<wgt id='1878'> +7.6114314e+01 </wgt>
<wgt id='1879'> +7.6187397e+01 </wgt>
<wgt id='1880'> +7.5822135e+01 </wgt>
<wgt id='1881'> +7.5788733e+01 </wgt>
<wgt id='1882'> +7.5913236e+01 </wgt>
<wgt id='1883'> +7.5837627e+01 </wgt>
<wgt id='1884'> +7.5799103e+01 </wgt>
<wgt id='1885'> +7.5922606e+01 </wgt>
<wgt id='1886'> +7.6106716e+01 </wgt>
<wgt id='1887'> +7.6051242e+01 </wgt>
<wgt id='1888'> +7.6217260e+01 </wgt>
<wgt id='1889'> +7.6038493e+01 </wgt>
<wgt id='1890'> +7.5715144e+01 </wgt>
<wgt id='1891'> +7.5947664e+01 </wgt>
<wgt id='1892'> +7.5821336e+01 </wgt>
<wgt id='1893'> +7.5906863e+01 </wgt>
<wgt id='1894'> +7.5811756e+01 </wgt>
<wgt id='1895'> +7.5766292e+01 </wgt>
<wgt id='1896'> +7.5847549e+01 </wgt>
<wgt id='1897'> +7.5910887e+01 </wgt>
<wgt id='1898'> +7.5653805e+01 </wgt>
<wgt id='1899'> +7.5921513e+01 </wgt>
<wgt id='1900'> +7.5738140e+01 </wgt>
<wgt id='1901'> +7.5880411e+01 </wgt>
<wgt id='1902'> +7.5797406e+01 </wgt>
<wgt id='1903'> +7.6020971e+01 </wgt>
<wgt id='1904'> +7.5756108e+01 </wgt>
<wgt id='1905'> +7.5921268e+01 </wgt>
<wgt id='1906'> +7.5870089e+01 </wgt>
<wgt id='1907'> +7.5784794e+01 </wgt>
<wgt id='1908'> +7.5863333e+01 </wgt>
<wgt id='1909'> +7.5810634e+01 </wgt>
<wgt id='1910'> +7.5861302e+01 </wgt>
<wgt id='1911'> +7.5846916e+01 </wgt>
<wgt id='1912'> +7.5793790e+01 </wgt>
<wgt id='1913'> +7.5764825e+01 </wgt>
<wgt id='1914'> +7.5863598e+01 </wgt>
<wgt id='1915'> +7.5802037e+01 </wgt>
<wgt id='1916'> +7.5879847e+01 </wgt>
<wgt id='1917'> +7.5866293e+01 </wgt>
<wgt id='1918'> +7.5862154e+01 </wgt>
<wgt id='1919'> +7.5737154e+01 </wgt>
<wgt id='1920'> +7.5886987e+01 </wgt>
<wgt id='1921'> +7.5898465e+01 </wgt>
<wgt id='1922'> +7.5881425e+01 </wgt>
<wgt id='1923'> +7.5879635e+01 </wgt>
<wgt id='1924'> +7.5891287e+01 </wgt>
<wgt id='1925'> +7.5875265e+01 </wgt>
<wgt id='1926'> +7.5907807e+01 </wgt>
<wgt id='1927'> +7.5885282e+01 </wgt>
<wgt id='1928'> +7.5855406e+01 </wgt>
<wgt id='1929'> +7.5835269e+01 </wgt>
<wgt id='1930'> +7.5825170e+01 </wgt>
<wgt id='1931'> +7.5817099e+01 </wgt>
<wgt id='1932'> +7.5886201e+01 </wgt>
<wgt id='1933'> +7.5829907e+01 </wgt>
<wgt id='1934'> +7.5873633e+01 </wgt>
<wgt id='1935'> +7.5895457e+01 </wgt>
<wgt id='1936'> +7.5860498e+01 </wgt>
<wgt id='1937'> +7.5874063e+01 </wgt>
<wgt id='1938'> +7.5858786e+01 </wgt>
<wgt id='1939'> +7.5845076e+01 </wgt>
<wgt id='1940'> +7.5823518e+01 </wgt>
<wgt id='1941'> +7.5892729e+01 </wgt>
<wgt id='1942'> +7.5799634e+01 </wgt>
<wgt id='1943'> +7.5835102e+01 </wgt>
<wgt id='1944'> +7.5842974e+01 </wgt>
<wgt id='1945'> +7.5882185e+01 </wgt>
<wgt id='1946'> +7.5829301e+01 </wgt>
<wgt id='1947'> +7.5848339e+01 </wgt>
<wgt id='1948'> +7.5837766e+01 </wgt>
<wgt id='1949'> +7.5847559e+01 </wgt>
<wgt id='1950'> +7.5846309e+01 </wgt>
<wgt id='1951'> +7.5832629e+01 </wgt>
<wgt id='1952'> +7.5858016e+01 </wgt>
<wgt id='1953'> +7.5867365e+01 </wgt>
<wgt id='1954'> +7.5857037e+01 </wgt>
<wgt id='1955'> +7.5844150e+01 </wgt>
<wgt id='1956'> +7.5851035e+01 </wgt>
<wgt id='1957'> +7.5854021e+01 </wgt>
<wgt id='1958'> +7.5851985e+01 </wgt>
<wgt id='1959'> +7.5852062e+01 </wgt>
<wgt id='1960'> +7.5852919e+01 </wgt>
<wgt id='1961'> +7.5851700e+01 </wgt>
<wgt id='1962'> +7.5854569e+01 </wgt>
</rwgt>
</event>
<event npLO=" -1 " npNLO=" 1 ">
 7      1 -1.5146096e+02 3.19369170e+01 7.54677110e-03 1.21185360e-01
       21 -1    0    0  501  502 +0.0000000000e+00 +0.0000000000e+00 +2.7210877000e+02 2.7210877000e+02 0.0000000000e+00 0.0000e+00 9.0000e+00
       -3 -1    0    0    0  501 +0.0000000000e+00 +0.0000000000e+00 -4.6771698000e+01 4.6771698000e+01 0.0000000000e+00 0.0000e+00 9.0000e+00
       23  2    1    2    0    0 -3.6199002000e+01 +4.8068831000e+01 +2.6522129000e+01 1.1115863000e+02 8.9620520000e+01 0.0000e+00 0.0000e+00
       11  1    3    3    0    0 +2.1225211000e+01 +6.0534468000e+00 +2.4276244000e+01 3.2809905000e+01 0.0000000000e+00 0.0000e+00 9.0000e+00
      -11  1    3    3    0    0 -3.1450743000e+01 +3.2579635000e+00 -3.4764341000e-01 3.1620949000e+01 0.0000000000e+00 0.0000e+00 9.0000e+00
       22  1    3    3    0    0 -2.5973470000e+01 +3.8757421000e+01 +2.5935283000e+00 4.6727778000e+01 0.0000000000e+00 0.0000e+00 9.0000e+00
       -3  1    1    2    0  502 +3.6199002000e+01 -4.8068831000e+01 +1.9881494000e+02 2.0772184000e+02 0.0000000000e+00 0.0000e+00 9.0000e+00
#aMCatNLO 1  0  0  2  1 0.60058622E+02 0.00000000E+00 -9  7  0 0.00000000E+00 0.00000000E+00 0.00000000E+00 0.00000000E+00 0.00000000E+00
<rwgt>
<wgt id='1001'> -1.5146000e+02 </wgt>
<wgt id='1002'> -1.5146000e+02 </wgt>
<wgt id='1003'> -1.4291000e+02 </wgt>
<wgt id='1004'> -1.5295000e+02 </wgt>
<wgt id='1005'> -1.5526000e+02 </wgt>
<wgt id='1006'> -1.4993000e+02 </wgt>
<wgt id='1007'> -1.3622000e+02 </wgt>
<wgt id='1008'> -1.5854000e+02 </wgt>
<wgt id='1009'> -1.5022000e+02 </wgt>
<wgt id='1010'> -1.5547000e+02 </wgt>
<wgt id='1011'> -1.5457000e+02 </wgt>
<wgt id='1012'> -1.4137000e+02 </wgt>
<wgt id='1013'> -1.3551000e+02 </wgt>
<wgt id='1014'> -1.5408000e+02 </wgt>
<wgt id='1015'> -1.5843000e+02 </wgt>
<wgt id='1016'> -1.4322000e+02 </wgt>
<wgt id='1017'> -1.5840000e+02 </wgt>
<wgt id='1018'> -1.5312000e+02 </wgt>
<wgt id='1019'> -1.4996000e+02 </wgt>
<wgt id='1020'> -1.5758000e+02 </wgt>
<wgt id='1021'> -1.5344000e+02 </wgt>
<wgt id='1022'> -1.5770000e+02 </wgt>
<wgt id='1023'> -1.5292000e+02 </wgt>
<wgt id='1024'> -1.4544000e+02 </wgt>
<wgt id='1025'> -1.6336000e+02 </wgt>
<wgt id='1026'> -1.4905000e+02 </wgt>
<wgt id='1027'> -1.5145000e+02 </wgt>
<wgt id='1028'> -1.5241000e+02 </wgt>
<wgt id='1029'> -1.5369000e+02 </wgt>
<wgt id='1030'> -1.4503000e+02 </wgt>
<wgt id='1031'> -1.5479000e+02 </wgt>
<wgt id='1032'> -1.5734000e+02 </wgt>
<wgt id='1033'> -1.5400000e+02 </wgt>
<wgt id='1034'> -1.4420000e+02 </wgt>
<wgt id='1035'> -1.4698000e+02 </wgt>
<wgt id='1036'> -1.5206000e+02 </wgt>
<wgt id='1037'> -1.5748000e+02 </wgt>
<wgt id='1038'> -1.5571000e+02 </wgt>
<wgt id='1039'> -1.5619000e+02 </wgt>
<wgt id='1040'> -1.5023000e+02 </wgt>
<wgt id='1041'> -1.4810000e+02 </wgt>
<wgt id='1042'> -1.5132000e+02 </wgt>
<wgt id='1043'> -1.5380000e+02 </wgt>
<wgt id='1044'> -1.5207000e+02 </wgt>
<wgt id='1045'> -1.5067000e+02 </wgt>
<wgt id='1046'> -1.5203000e+02 </wgt>
<wgt id='1047'> -1.4962000e+02 </wgt>
<wgt id='1048'> -1.5800000e+02 </wgt>
<wgt id='1049'> -1.5166000e+02 </wgt>
<wgt id='1050'> -1.5191000e+02 </wgt>
<wgt id='1051'> -1.5132000e+02 </wgt>
<wgt id='1052'> -1.5209000e+02 </wgt>
<wgt id='1053'> -1.4516000e+02 </wgt>
<wgt id='1054'> -1.4941000e+02 </wgt>
<wgt id='1055'> -1.5055000e+02 </wgt>
<wgt id='1056'> -1.5470000e+02 </wgt>
<wgt id='1057'> -1.4925000e+02 </wgt>
<wgt id='1058'> -1.4990000e+02 </wgt>
<wgt id='1059'> -1.6133000e+02 </wgt>
<wgt id='1060'> -1.4790000e+02 </wgt>
<wgt id='1061'> -1.5524000e+02 </wgt>
<wgt id='1062'> -1.5188000e+02 </wgt>
<wgt id='1063'> -1.5503000e+02 </wgt>
<wgt id='1064'> -1.5215000e+02 </wgt>
<wgt id='1065'> -1.5213000e+02 </wgt>
<wgt id='1066'> -1.4864000e+02 </wgt>
<wgt id='1067'> -1.5443000e+02 </wgt>
<wgt id='1068'> -1.5309000e+02 </wgt>
<wgt id='1069'> -1.5694000e+02 </wgt>
<wgt id='1070'> -1.5102000e+02 </wgt>
<wgt id='1071'> -1.4146000e+02 </wgt>
<wgt id='1072'> -1.4770000e+02 </wgt>
<wgt id='1073'> -1.5209000e+02 </wgt>
<wgt id='1074'> -1.4945000e+02 </wgt>
<wgt id='1075'> -1.3336000e+02 </wgt>
<wgt id='1076'> -1.5304000e+02 </wgt>
<wgt id='1077'> -1.5064000e+02 </wgt>
<wgt id='1078'> -1.3941000e+02 </wgt>
<wgt id='1079'> -1.4891000e+02 </wgt>
<wgt id='1080'> -1.5594000e+02 </wgt>
<wgt id='1081'> -1.4783000e+02 </wgt>
<wgt id='1082'> -1.5132000e+02 </wgt>
<wgt id='1083'> -1.5136000e+02 </wgt>
<wgt id='1084'> -1.4760000e+02 </wgt>
<wgt id='1085'> -1.5857000e+02 </wgt>
<wgt id='1086'> -1.5092000e+02 </wgt>
<wgt id='1087'> -1.4710000e+02 </wgt>
<wgt id='1088'> -1.4896000e+02 </wgt>
<wgt id='1089'> -1.4712000e+02 </wgt>
<wgt id='1090'> -1.5096000e+02 </wgt>
<wgt id='1091'> -1.5739000e+02 </wgt>
<wgt id='1092'> -1.4678000e+02 </wgt>
<wgt id='1093'> -1.5272000e+02 </wgt>
<wgt id='1094'> -1.5424000e+02 </wgt>
<wgt id='1095'> -1.5398000e+02 </wgt>
<wgt id='1096'> -1.5294000e+02 </wgt>
<wgt id='1097'> -1.5396000e+02 </wgt>
<wgt id='1098'> -1.5394000e+02 </wgt>
<wgt id='1099'> -1.4879000e+02 </wgt>
<wgt id='1100'> -1.5954000e+02 </wgt>
<wgt id='1101'> -1.5891000e+02 </wgt>
<wgt id='1102'> -1.5990000e+02 </wgt>
<wgt id='1103'> -1.4987000e+02 </wgt>
<wgt id='1104'> -1.5372000e+02 </wgt>
<wgt id='1105'> -1.5146096e+02 </wgt>
<wgt id='1106'> -5.8669891e+01 </wgt>
<wgt id='1107'> -1.0021373e+02 </wgt>
<wgt id='1108'> -8.6053821e+01 </wgt>
<wgt id='1109'> -6.6942662e+01 </wgt>
<wgt id='1110'> -1.1343548e+02 </wgt>
<wgt id='1111'> -6.4096271e+01 </wgt>
<wgt id='1112'> -4.9378659e+01 </wgt>
<wgt id='1113'> -8.5262296e+01 </wgt>
<wgt id='1114'> -7.6541123e+01 </wgt>
<wgt id='1115'> -7.3822956e+01 </wgt>
<wgt id='1116'> -7.6261546e+01 </wgt>
<wgt id='1117'> -8.0967016e+01 </wgt>
<wgt id='1118'> -7.6836904e+01 </wgt>
<wgt id='1119'> -7.7339834e+01 </wgt>
<wgt id='1120'> -7.8380695e+01 </wgt>
<wgt id='1121'> -7.3128341e+01 </wgt>
<wgt id='1122'> -7.6885550e+01 </wgt>
<wgt id='1123'> -7.9778164e+01 </wgt>
<wgt id='1124'> -7.7601872e+01 </wgt>
<wgt id='1125'> -7.9539474e+01 </wgt>
<wgt id='1126'> -7.7076100e+01 </wgt>
<wgt id='1127'> -7.5246684e+01 </wgt>
<wgt id='1128'> -7.5445722e+01 </wgt>
<wgt id='1129'> -7.8683799e+01 </wgt>
<wgt id='1130'> -7.5881633e+01 </wgt>
<wgt id='1131'> -7.8149035e+01 </wgt>
<wgt id='1132'> -7.4698026e+01 </wgt>
<wgt id='1133'> -7.5611638e+01 </wgt>
<wgt id='1134'> -7.7395951e+01 </wgt>
<wgt id='1135'> -7.5708519e+01 </wgt>
<wgt id='1136'> -7.5138660e+01 </wgt>
<wgt id='1137'> -7.4261086e+01 </wgt>
<wgt id='1138'> -7.3923778e+01 </wgt>
<wgt id='1139'> -7.4882551e+01 </wgt>
<wgt id='1140'> -7.6429666e+01 </wgt>
<wgt id='1141'> -7.5306321e+01 </wgt>
<wgt id='1142'> -7.7360503e+01 </wgt>
<wgt id='1143'> -7.5677430e+01 </wgt>
<wgt id='1144'> -7.9427786e+01 </wgt>
<wgt id='1145'> -7.7261815e+01 </wgt>
<wgt id='1146'> -7.8375582e+01 </wgt>
<wgt id='1147'> -7.4156522e+01 </wgt>
<wgt id='1148'> -7.6992527e+01 </wgt>
<wgt id='1149'> -7.6868041e+01 </wgt>
<wgt id='1150'> -7.7154546e+01 </wgt>
<wgt id='1151'> -7.5332898e+01 </wgt>
<wgt id='1152'> -7.6721608e+01 </wgt>
<wgt id='1153'> -7.9898107e+01 </wgt>
<wgt id='1154'> -7.5108081e+01 </wgt>
<wgt id='1155'> -7.6481144e+01 </wgt>
<wgt id='1156'> -7.5079496e+01 </wgt>
<wgt id='1157'> -7.6404076e+01 </wgt>
<wgt id='1158'> -7.5195992e+01 </wgt>
<wgt id='1159'> -7.7061471e+01 </wgt>
<wgt id='1160'> -7.5702957e+01 </wgt>
<wgt id='1161'> -7.5312740e+01 </wgt>
<wgt id='1162'> -7.6049291e+01 </wgt>
<wgt id='1163'> -7.8290816e+01 </wgt>
<wgt id='1164'> -7.7571401e+01 </wgt>
<wgt id='1165'> -7.7822044e+01 </wgt>
<wgt id='1166'> -7.4388066e+01 </wgt>
<wgt id='1167'> -7.7773207e+01 </wgt>
<wgt id='1168'> -7.6638997e+01 </wgt>
<wgt id='1169'> -7.3087158e+01 </wgt>
<wgt id='1170'> -7.6320463e+01 </wgt>
<wgt id='1171'> -7.5564694e+01 </wgt>
<wgt id='1172'> -7.5092758e+01 </wgt>
<wgt id='1173'> -7.8893041e+01 </wgt>
<wgt id='1174'> -7.6935048e+01 </wgt>
<wgt id='1175'> -7.5650532e+01 </wgt>
<wgt id='1176'> -7.6684489e+01 </wgt>
<wgt id='1177'> -7.3583631e+01 </wgt>
<wgt id='1178'> -7.5453924e+01 </wgt>
<wgt id='1179'> -7.3561909e+01 </wgt>
<wgt id='1180'> -7.6132489e+01 </wgt>
<wgt id='1181'> -7.3039877e+01 </wgt>
<wgt id='1182'> -7.8122425e+01 </wgt>
<wgt id='1183'> -7.5120762e+01 </wgt>
<wgt id='1184'> -7.5986505e+01 </wgt>
<wgt id='1185'> -7.8806489e+01 </wgt>
<wgt id='1186'> -7.7628395e+01 </wgt>
<wgt id='1187'> -7.8894983e+01 </wgt>
<wgt id='1188'> -7.7839041e+01 </wgt>
<wgt id='1189'> -7.9912979e+01 </wgt>
<wgt id='1190'> -7.7449737e+01 </wgt>
<wgt id='1191'> -7.3447946e+01 </wgt>
<wgt id='1192'> -7.7655161e+01 </wgt>
<wgt id='1193'> -7.7595153e+01 </wgt>
<wgt id='1194'> -7.5636813e+01 </wgt>
<wgt id='1195'> -7.4148417e+01 </wgt>
<wgt id='1196'> -7.5881633e+01 </wgt>
<wgt id='1197'> -7.7947547e+01 </wgt>
<wgt id='1198'> -7.7825939e+01 </wgt>
<wgt id='1199'> -7.9593974e+01 </wgt>
<wgt id='1200'> -7.5338622e+01 </wgt>
<wgt id='1201'> -7.8197415e+01 </wgt>
<wgt id='1202'> -7.7632700e+01 </wgt>
<wgt id='1203'> -8.4327261e+01 </wgt>
<wgt id='1204'> -7.5960092e+01 </wgt>
<wgt id='1205'> -7.3649846e+01 </wgt>
<wgt id='1206'> -7.7729724e+01 </wgt>
<wgt id='1207'> -7.9341306e+01 </wgt>
<wgt id='1208'> -7.5644393e+01 </wgt>
<wgt id='1209'> -7.3933451e+01 </wgt>
<wgt id='1210'> -7.6261912e+01 </wgt>
<wgt id='1211'> -7.4876422e+01 </wgt>
<wgt id='1212'> -7.6704711e+01 </wgt>
<wgt id='1213'> -7.6284921e+01 </wgt>
<wgt id='1214'> -7.4843039e+01 </wgt>
<wgt id='1215'> -7.4633410e+01 </wgt>
<wgt id='1216'> -7.6890549e+01 </wgt>
<wgt id='1217'> -7.6970226e+01 </wgt>
<wgt id='1218'> -7.6854309e+01 </wgt>
<wgt id='1219'> -7.7038497e+01 </wgt>
<wgt id='1220'> -7.7207990e+01 </wgt>
<wgt id='1221'> -7.7154907e+01 </wgt>
<wgt id='1222'> -7.6848872e+01 </wgt>
<wgt id='1223'> -7.7157551e+01 </wgt>
<wgt id='1224'> -7.6752903e+01 </wgt>
<wgt id='1225'> -7.7102989e+01 </wgt>
<wgt id='1226'> -7.6630200e+01 </wgt>
<wgt id='1227'> -7.6801190e+01 </wgt>
<wgt id='1228'> -7.7222283e+01 </wgt>
<wgt id='1229'> -7.6747766e+01 </wgt>
<wgt id='1230'> -7.7145402e+01 </wgt>
<wgt id='1231'> -7.6791457e+01 </wgt>
<wgt id='1232'> -7.6929472e+01 </wgt>
<wgt id='1233'> -7.7174093e+01 </wgt>
<wgt id='1234'> -7.7143314e+01 </wgt>
<wgt id='1235'> -7.6605025e+01 </wgt>
<wgt id='1236'> -7.6700296e+01 </wgt>
<wgt id='1237'> -7.6293512e+01 </wgt>
<wgt id='1238'> -7.6888835e+01 </wgt>
<wgt id='1239'> -7.6694707e+01 </wgt>
<wgt id='1240'> -7.6461086e+01 </wgt>
<wgt id='1241'> -7.7077364e+01 </wgt>
<wgt id='1242'> -7.7149089e+01 </wgt>
<wgt id='1243'> -7.6894544e+01 </wgt>
<wgt id='1244'> -7.6660072e+01 </wgt>
<wgt id='1245'> -7.6665901e+01 </wgt>
<wgt id='1246'> -7.6817455e+01 </wgt>
<wgt id='1247'> -7.6953499e+01 </wgt>
<wgt id='1248'> -7.7035097e+01 </wgt>
<wgt id='1249'> -7.6648023e+01 </wgt>
<wgt id='1250'> -7.7075370e+01 </wgt>
<wgt id='1251'> -7.6801727e+01 </wgt>
<wgt id='1252'> -7.7142715e+01 </wgt>
<wgt id='1253'> -7.7060515e+01 </wgt>
<wgt id='1254'> -7.7195741e+01 </wgt>
<wgt id='1255'> -7.6863814e+01 </wgt>
<wgt id='1256'> -7.6900813e+01 </wgt>
<wgt id='1257'> -7.7133148e+01 </wgt>
<wgt id='1258'> -7.6947177e+01 </wgt>
<wgt id='1259'> -7.6680869e+01 </wgt>
<wgt id='1260'> -7.6963061e+01 </wgt>
<wgt id='1261'> -7.6922597e+01 </wgt>
<wgt id='1262'> -7.6990604e+01 </wgt>
<wgt id='1263'> -7.6788010e+01 </wgt>
<wgt id='1264'> -7.6490962e+01 </wgt>
<wgt id='1265'> -7.6875096e+01 </wgt>
<wgt id='1266'> -7.7128993e+01 </wgt>
<wgt id='1267'> -7.7059022e+01 </wgt>
<wgt id='1268'> -7.7010560e+01 </wgt>
<wgt id='1269'> -7.6957418e+01 </wgt>
<wgt id='1270'> -7.6717133e+01 </wgt>
<wgt id='1271'> -7.6898244e+01 </wgt>
<wgt id='1272'> -7.6955993e+01 </wgt>
<wgt id='1273'> -7.6768628e+01 </wgt>
<wgt id='1274'> -7.6799359e+01 </wgt>
<wgt id='1275'> -7.6837678e+01 </wgt>
<wgt id='1276'> -7.6936114e+01 </wgt>
<wgt id='1277'> -7.6980283e+01 </wgt>
<wgt id='1278'> -7.7010124e+01 </wgt>
<wgt id='1279'> -7.7119189e+01 </wgt>
<wgt id='1280'> -7.6936907e+01 </wgt>
<wgt id='1281'> -7.6804548e+01 </wgt>
<wgt id='1282'> -7.6964155e+01 </wgt>
<wgt id='1283'> -7.6954833e+01 </wgt>
<wgt id='1284'> -7.6988724e+01 </wgt>
<wgt id='1285'> -7.6742656e+01 </wgt>
<wgt id='1286'> -7.6844518e+01 </wgt>
<wgt id='1287'> -7.6940896e+01 </wgt>
<wgt id='1288'> -7.6902066e+01 </wgt>
<wgt id='1289'> -7.6776908e+01 </wgt>
<wgt id='1290'> -7.6878551e+01 </wgt>
<wgt id='1291'> -7.6947265e+01 </wgt>
<wgt id='1292'> -7.6873045e+01 </wgt>
<wgt id='1293'> -7.6872740e+01 </wgt>
<wgt id='1294'> -7.6938980e+01 </wgt>
<wgt id='1295'> -7.6904430e+01 </wgt>
<wgt id='1296'> -7.6845018e+01 </wgt>
<wgt id='1297'> -7.6938644e+01 </wgt>
<wgt id='1298'> -7.6883602e+01 </wgt>
<wgt id='1299'> -7.6885212e+01 </wgt>
<wgt id='1300'> -7.6856765e+01 </wgt>
<wgt id='1301'> -7.6880050e+01 </wgt>
<wgt id='1302'> -7.6883317e+01 </wgt>
<wgt id='1303'> -7.6872760e+01 </wgt>
<wgt id='1304'> -7.6872143e+01 </wgt>
<wgt id='1305'> -7.6921648e+01 </wgt>
<wgt id='1306'> -7.6928338e+01 </wgt>
<wgt id='1307'> -7.6891233e+01 </wgt>
<wgt id='1308'> -7.6848356e+01 </wgt>
<wgt id='1309'> -7.6921268e+01 </wgt>
<wgt id='1310'> -7.6904948e+01 </wgt>
<wgt id='1311'> -7.6857461e+01 </wgt>
<wgt id='1312'> -7.6850582e+01 </wgt>
<wgt id='1313'> -7.6904498e+01 </wgt>
<wgt id='1314'> -7.6913419e+01 </wgt>
<wgt id='1315'> -7.6898101e+01 </wgt>
<wgt id='1316'> -7.6886547e+01 </wgt>
<wgt id='1317'> -7.4438492e+01 </wgt>
<wgt id='1318'> -7.9517082e+01 </wgt>
<wgt id='1319'> -6.9249197e+01 </wgt>
<wgt id='1320'> -7.3369200e+01 </wgt>
<wgt id='1321'> -7.3411445e+01 </wgt>
<wgt id='1322'> -7.3470968e+01 </wgt>
<wgt id='1323'> -7.4097092e+01 </wgt>
<wgt id='1324'> -7.1691722e+01 </wgt>
<wgt id='1325'> -7.3426964e+01 </wgt>
<wgt id='1326'> -7.3430857e+01 </wgt>
<wgt id='1327'> -7.4387295e+01 </wgt>
<wgt id='1328'> -7.2158551e+01 </wgt>
<wgt id='1329'> -7.2843619e+01 </wgt>
<wgt id='1330'> -7.3143924e+01 </wgt>
<wgt id='1331'> -7.4753949e+01 </wgt>
<wgt id='1332'> -7.2454594e+01 </wgt>
<wgt id='1333'> -7.2545630e+01 </wgt>
<wgt id='1334'> -7.3753353e+01 </wgt>
<wgt id='1335'> -7.2948818e+01 </wgt>
<wgt id='1336'> -7.4303780e+01 </wgt>
<wgt id='1337'> -7.1931679e+01 </wgt>
<wgt id='1338'> -7.5056756e+01 </wgt>
<wgt id='1339'> -7.4260679e+01 </wgt>
<wgt id='1340'> -7.2439175e+01 </wgt>
<wgt id='1341'> -7.3419665e+01 </wgt>
<wgt id='1342'> -7.3268825e+01 </wgt>
<wgt id='1343'> -7.2934433e+01 </wgt>
<wgt id='1344'> -7.3790824e+01 </wgt>
<wgt id='1345'> -7.4476706e+01 </wgt>
<wgt id='1346'> -7.2292995e+01 </wgt>
<wgt id='1347'> -7.3311722e+01 </wgt>
<wgt id='1348'> -7.3446175e+01 </wgt>
<wgt id='1349'> -7.3117467e+01 </wgt>
<wgt id='1350'> -7.3461106e+01 </wgt>
<wgt id='1351'> -7.3656165e+01 </wgt>
<wgt id='1352'> -7.2991937e+01 </wgt>
<wgt id='1353'> -7.2765828e+01 </wgt>
<wgt id='1354'> -7.4680659e+01 </wgt>
<wgt id='1355'> -7.3083544e+01 </wgt>
<wgt id='1356'> -7.3682106e+01 </wgt>
<wgt id='1357'> -7.3819654e+01 </wgt>
<wgt id='1358'> -7.2634863e+01 </wgt>
<wgt id='1359'> -7.4069284e+01 </wgt>
<wgt id='1360'> -7.2674442e+01 </wgt>
<wgt id='1361'> -7.3431930e+01 </wgt>
<wgt id='1362'> -7.3430014e+01 </wgt>
<wgt id='1363'> -7.3797266e+01 </wgt>
<wgt id='1364'> -7.3653681e+01 </wgt>
<wgt id='1365'> -7.1576283e+01 </wgt>
<wgt id='1366'> -7.4140976e+01 </wgt>
<wgt id='1367'> -7.2776067e+01 </wgt>
<wgt id='1368'> -7.2139136e+01 </wgt>
<wgt id='1369'> -7.2298588e+01 </wgt>
<wgt id='1370'> -7.1817031e+01 </wgt>
<wgt id='1371'> -7.3351653e+01 </wgt>
<wgt id='1372'> -7.3258557e+01 </wgt>
<wgt id='1373'> -7.1710805e+01 </wgt>
<wgt id='1374'> -7.4569918e+01 </wgt>
<wgt id='1375'> -7.2246637e+01 </wgt>
<wgt id='1376'> -7.3338734e+01 </wgt>
<wgt id='1377'> -7.0866270e+01 </wgt>
<wgt id='1378'> -7.5848949e+01 </wgt>
<wgt id='1379'> -7.4689220e+01 </wgt>
<wgt id='1380'> -7.2079911e+01 </wgt>
<wgt id='1381'> -7.7153425e+01 </wgt>
<wgt id='1382'> -6.2290090e+01 </wgt>
<wgt id='1383'> -7.6283629e+01 </wgt>
<wgt id='1384'> -7.4227983e+01 </wgt>
<wgt id='1385'> -9.2307879e+01 </wgt>
<wgt id='1386'> -9.2373240e+01 </wgt>
<wgt id='1387'> -9.2232449e+01 </wgt>
<wgt id='1388'> -9.2168668e+01 </wgt>
<wgt id='1389'> -9.2547634e+01 </wgt>
<wgt id='1390'> -9.1972096e+01 </wgt>
<wgt id='1391'> -9.2703769e+01 </wgt>
<wgt id='1392'> -9.1471650e+01 </wgt>
<wgt id='1393'> -9.2888347e+01 </wgt>
<wgt id='1394'> -9.2372991e+01 </wgt>
<wgt id='1395'> -9.2220660e+01 </wgt>
<wgt id='1396'> -9.1755624e+01 </wgt>
<wgt id='1397'> -9.2592992e+01 </wgt>
<wgt id='1398'> -9.2886397e+01 </wgt>
<wgt id='1399'> -9.1874365e+01 </wgt>
<wgt id='1400'> -9.1818377e+01 </wgt>
<wgt id='1401'> -9.2682127e+01 </wgt>
<wgt id='1402'> -9.2082296e+01 </wgt>
<wgt id='1403'> -9.2407898e+01 </wgt>
<wgt id='1404'> -9.3583442e+01 </wgt>
<wgt id='1405'> -9.1685108e+01 </wgt>
<wgt id='1406'> -9.2390557e+01 </wgt>
<wgt id='1407'> -9.2150242e+01 </wgt>
<wgt id='1408'> -9.2537678e+01 </wgt>
<wgt id='1409'> -9.1846041e+01 </wgt>
<wgt id='1410'> -9.2277752e+01 </wgt>
<wgt id='1411'> -9.2342210e+01 </wgt>
<wgt id='1412'> -9.2401546e+01 </wgt>
<wgt id='1413'> -9.2310413e+01 </wgt>
<wgt id='1414'> -9.2524906e+01 </wgt>
<wgt id='1415'> -9.2167617e+01 </wgt>
<wgt id='1416'> -9.2484314e+01 </wgt>
<wgt id='1417'> -9.2201301e+01 </wgt>
<wgt id='1418'> -9.2764915e+01 </wgt>
<wgt id='1419'> -9.1344772e+01 </wgt>
<wgt id='1420'> -9.2086982e+01 </wgt>
<wgt id='1421'> -9.2155269e+01 </wgt>
<wgt id='1422'> -9.2496877e+01 </wgt>
<wgt id='1423'> -9.2085512e+01 </wgt>
<wgt id='1424'> -9.2862428e+01 </wgt>
<wgt id='1425'> -9.1392187e+01 </wgt>
<wgt id='1426'> -9.1855897e+01 </wgt>
<wgt id='1427'> -9.2431944e+01 </wgt>
<wgt id='1428'> -9.2249326e+01 </wgt>
<wgt id='1429'> -9.2883143e+01 </wgt>
<wgt id='1430'> -9.1855505e+01 </wgt>
<wgt id='1431'> -9.2279221e+01 </wgt>
<wgt id='1432'> -9.2108354e+01 </wgt>
<wgt id='1433'> -9.2019958e+01 </wgt>
<wgt id='1434'> -9.2238697e+01 </wgt>
<wgt id='1435'> -9.2291111e+01 </wgt>
<wgt id='1436'> -7.2600150e+01 </wgt>
<wgt id='1437'> -7.2576740e+01 </wgt>
<wgt id='1438'> -7.2622179e+01 </wgt>
<wgt id='1439'> -7.2596748e+01 </wgt>
<wgt id='1440'> -7.2768667e+01 </wgt>
<wgt id='1441'> -7.2547174e+01 </wgt>
<wgt id='1442'> -7.2453767e+01 </wgt>
<wgt id='1443'> -7.2467658e+01 </wgt>
<wgt id='1444'> -7.2101603e+01 </wgt>
<wgt id='1445'> -7.2289612e+01 </wgt>
<wgt id='1446'> -7.2594823e+01 </wgt>
<wgt id='1447'> -7.2592639e+01 </wgt>
<wgt id='1448'> -7.2300866e+01 </wgt>
<wgt id='1449'> -7.2221028e+01 </wgt>
<wgt id='1450'> -7.2537804e+01 </wgt>
<wgt id='1451'> -7.2577284e+01 </wgt>
<wgt id='1452'> -7.2372671e+01 </wgt>
<wgt id='1453'> -7.2855201e+01 </wgt>
<wgt id='1454'> -7.2815645e+01 </wgt>
<wgt id='1455'> -7.2480898e+01 </wgt>
<wgt id='1456'> -7.2660961e+01 </wgt>
<wgt id='1457'> -7.2987966e+01 </wgt>
<wgt id='1458'> -7.2938973e+01 </wgt>
<wgt id='1459'> -7.3213457e+01 </wgt>
<wgt id='1460'> -7.2589677e+01 </wgt>
<wgt id='1461'> -7.2842113e+01 </wgt>
<wgt id='1462'> -7.2334757e+01 </wgt>
<wgt id='1463'> -7.2577336e+01 </wgt>
<wgt id='1464'> -7.2537683e+01 </wgt>
<wgt id='1465'> -7.4984817e+01 </wgt>
<wgt id='1466'> -7.5118313e+01 </wgt>
<wgt id='1467'> -7.4933228e+01 </wgt>
<wgt id='1468'> -7.5891598e+01 </wgt>
<wgt id='1469'> -7.5591027e+01 </wgt>
<wgt id='1470'> -7.4902095e+01 </wgt>
<wgt id='1471'> -7.4532780e+01 </wgt>
<wgt id='1472'> -7.5496320e+01 </wgt>
<wgt id='1473'> -7.4460636e+01 </wgt>
<wgt id='1474'> -7.4752426e+01 </wgt>
<wgt id='1475'> -7.5118551e+01 </wgt>
<wgt id='1476'> -7.6084564e+01 </wgt>
<wgt id='1477'> -7.5163131e+01 </wgt>
<wgt id='1478'> -7.4502487e+01 </wgt>
<wgt id='1479'> -7.5058311e+01 </wgt>
<wgt id='1480'> -7.4566366e+01 </wgt>
<wgt id='1481'> -7.5154447e+01 </wgt>
<wgt id='1482'> -7.5943224e+01 </wgt>
<wgt id='1483'> -7.4561413e+01 </wgt>
<wgt id='1484'> -7.4406452e+01 </wgt>
<wgt id='1485'> -7.5443749e+01 </wgt>
<wgt id='1486'> -7.5487825e+01 </wgt>
<wgt id='1487'> -7.4590656e+01 </wgt>
<wgt id='1488'> -7.5033764e+01 </wgt>
<wgt id='1489'> -7.4423140e+01 </wgt>
<wgt id='1490'> -7.5043526e+01 </wgt>
<wgt id='1491'> -7.5233726e+01 </wgt>
<wgt id='1492'> -7.5196621e+01 </wgt>
<wgt id='1493'> -7.4816886e+01 </wgt>
<wgt id='1494'> -7.4850914e+01 </wgt>
<wgt id='1495'> -7.5183970e+01 </wgt>
<wgt id='1496'> -7.5122285e+01 </wgt>
<wgt id='1497'> -7.5019166e+01 </wgt>
<wgt id='1498'> -7.5095741e+01 </wgt>
<wgt id='1499'> -7.4998298e+01 </wgt>
<wgt id='1500'> -7.5113035e+01 </wgt>
<wgt id='1501'> -7.5416400e+01 </wgt>
<wgt id='1502'> -7.5045355e+01 </wgt>
<wgt id='1503'> -7.5152622e+01 </wgt>
<wgt id='1504'> -7.4957940e+01 </wgt>
<wgt id='1505'> -7.5055316e+01 </wgt>
<wgt id='1506'> -7.5148834e+01 </wgt>
<wgt id='1507'> -7.5208395e+01 </wgt>
<wgt id='1508'> -7.5238228e+01 </wgt>
<wgt id='1509'> -7.5024261e+01 </wgt>
<wgt id='1510'> -7.5348509e+01 </wgt>
<wgt id='1511'> -7.5275578e+01 </wgt>
<wgt id='1512'> -7.5178628e+01 </wgt>
<wgt id='1513'> -7.5134613e+01 </wgt>
<wgt id='1514'> -7.5058748e+01 </wgt>
<wgt id='1515'> -7.5196551e+01 </wgt>
<wgt id='1516'> -7.5082908e+01 </wgt>
<wgt id='1517'> -7.5081537e+01 </wgt>
<wgt id='1518'> -7.5127015e+01 </wgt>
<wgt id='1519'> -7.5016289e+01 </wgt>
<wgt id='1520'> -7.5038280e+01 </wgt>
<wgt id='1521'> -7.5240284e+01 </wgt>
<wgt id='1522'> -7.5278026e+01 </wgt>
<wgt id='1523'> -7.5182239e+01 </wgt>
<wgt id='1524'> -7.5216159e+01 </wgt>
<wgt id='1525'> -7.5050485e+01 </wgt>
<wgt id='1526'> -7.5031805e+01 </wgt>
<wgt id='1527'> -7.5168905e+01 </wgt>
<wgt id='1528'> -7.5065755e+01 </wgt>
<wgt id='1529'> -7.5123581e+01 </wgt>
<wgt id='1530'> -7.5111581e+01 </wgt>
<wgt id='1531'> -7.5155220e+01 </wgt>
<wgt id='1532'> -7.5157352e+01 </wgt>
<wgt id='1533'> -7.5115632e+01 </wgt>
<wgt id='1534'> -7.5151172e+01 </wgt>
<wgt id='1535'> -7.5093935e+01 </wgt>
<wgt id='1536'> -7.5077276e+01 </wgt>
<wgt id='1537'> -7.5096402e+01 </wgt>
<wgt id='1538'> -7.5084820e+01 </wgt>
<wgt id='1539'> -7.5099249e+01 </wgt>
<wgt id='1540'> -7.5079410e+01 </wgt>
<wgt id='1541'> -7.5100176e+01 </wgt>
<wgt id='1542'> -7.5105180e+01 </wgt>
<wgt id='1543'> -7.5089221e+01 </wgt>
<wgt id='1544'> -7.5122334e+01 </wgt>
<wgt id='1545'> -7.5179709e+01 </wgt>
<wgt id='1546'> -7.5088398e+01 </wgt>
<wgt id='1547'> -7.5158928e+01 </wgt>
<wgt id='1548'> -7.5086340e+01 </wgt>
<wgt id='1549'> -7.5144877e+01 </wgt>
<wgt id='1550'> -7.5138485e+01 </wgt>
<wgt id='1551'> -7.5111921e+01 </wgt>
<wgt id='1552'> -7.5180657e+01 </wgt>
<wgt id='1553'> -7.5161751e+01 </wgt>
<wgt id='1554'> -7.5124017e+01 </wgt>
<wgt id='1555'> -7.5115783e+01 </wgt>
<wgt id='1556'> -7.5112244e+01 </wgt>
<wgt id='1557'> -7.5076581e+01 </wgt>
<wgt id='1558'> -7.5107953e+01 </wgt>
<wgt id='1559'> -7.5109938e+01 </wgt>
<wgt id='1560'> -7.5101686e+01 </wgt>
<wgt id='1561'> -7.5102531e+01 </wgt>
<wgt id='1562'> -7.5115554e+01 </wgt>
<wgt id='1563'> -7.5127654e+01 </wgt>
<wgt id='1564'> -7.5139898e+01 </wgt>
<wgt id='1565'> -7.5111591e+01 </wgt>
<wgt id='1566'> -7.5108923e+01 </wgt>
<wgt id='1567'> -7.3538870e+01 </wgt>
<wgt id='1568'> -7.6692490e+01 </wgt>
<wgt id='1569'> -7.4379969e+01 </wgt>
<wgt id='1570'> -7.4526478e+01 </wgt>
<wgt id='1571'> -7.4556325e+01 </wgt>
<wgt id='1572'> -7.4063786e+01 </wgt>
<wgt id='1573'> -7.4400850e+01 </wgt>
<wgt id='1574'> -7.4907380e+01 </wgt>
<wgt id='1575'> -7.4011372e+01 </wgt>
<wgt id='1576'> -7.3454102e+01 </wgt>
<wgt id='1577'> -7.4131121e+01 </wgt>
<wgt id='1578'> -7.4603709e+01 </wgt>
<wgt id='1579'> -7.4110316e+01 </wgt>
<wgt id='1580'> -7.5061052e+01 </wgt>
<wgt id='1581'> -7.4678554e+01 </wgt>
<wgt id='1582'> -7.3715309e+01 </wgt>
<wgt id='1583'> -7.3800783e+01 </wgt>
<wgt id='1584'> -7.4161899e+01 </wgt>
<wgt id='1585'> -7.5158967e+01 </wgt>
<wgt id='1586'> -7.4613084e+01 </wgt>
<wgt id='1587'> -7.3719513e+01 </wgt>
<wgt id='1588'> -7.4604959e+01 </wgt>
<wgt id='1589'> -7.4721409e+01 </wgt>
<wgt id='1590'> -7.4319308e+01 </wgt>
<wgt id='1591'> -7.5088979e+01 </wgt>
<wgt id='1592'> -7.4596394e+01 </wgt>
<wgt id='1593'> -7.3999023e+01 </wgt>
<wgt id='1594'> -7.4346549e+01 </wgt>
<wgt id='1595'> -7.4824036e+01 </wgt>
<wgt id='1596'> -7.4069719e+01 </wgt>
<wgt id='1597'> -7.4533229e+01 </wgt>
<wgt id='1598'> -7.4657568e+01 </wgt>
<wgt id='1599'> -7.4403493e+01 </wgt>
<wgt id='1600'> -7.4434229e+01 </wgt>
<wgt id='1601'> -7.4423440e+01 </wgt>
<wgt id='1602'> -7.4525169e+01 </wgt>
<wgt id='1603'> -7.4263700e+01 </wgt>
<wgt id='1604'> -7.4457147e+01 </wgt>
<wgt id='1605'> -7.4362746e+01 </wgt>
<wgt id='1606'> -7.4677472e+01 </wgt>
<wgt id='1607'> -7.4483534e+01 </wgt>
<wgt id='1608'> -7.4302929e+01 </wgt>
<wgt id='1609'> -7.4294676e+01 </wgt>
<wgt id='1610'> -7.4217187e+01 </wgt>
<wgt id='1611'> -7.4308317e+01 </wgt>
<wgt id='1612'> -7.4254932e+01 </wgt>
<wgt id='1613'> -7.4471166e+01 </wgt>
<wgt id='1614'> -7.4402988e+01 </wgt>
<wgt id='1615'> -7.4235063e+01 </wgt>
<wgt id='1616'> -7.4295143e+01 </wgt>
<wgt id='1617'> -7.4441155e+01 </wgt>
<wgt id='1618'> -7.4454370e+01 </wgt>
<wgt id='1619'> -7.4282917e+01 </wgt>
<wgt id='1620'> -7.4333979e+01 </wgt>
<wgt id='1621'> -7.4406418e+01 </wgt>
<wgt id='1622'> -7.4344526e+01 </wgt>
<wgt id='1623'> -7.4351911e+01 </wgt>
<wgt id='1624'> -7.4496568e+01 </wgt>
<wgt id='1625'> -7.4391825e+01 </wgt>
<wgt id='1626'> -7.4287314e+01 </wgt>
<wgt id='1627'> -7.4257725e+01 </wgt>
<wgt id='1628'> -7.4315531e+01 </wgt>
<wgt id='1629'> -7.4289056e+01 </wgt>
<wgt id='1630'> -7.4391776e+01 </wgt>
<wgt id='1631'> -7.4457146e+01 </wgt>
<wgt id='1632'> -7.4410206e+01 </wgt>
<wgt id='1633'> -7.4403257e+01 </wgt>
<wgt id='1634'> -7.4367304e+01 </wgt>
<wgt id='1635'> -7.4347300e+01 </wgt>
<wgt id='1636'> -7.4373849e+01 </wgt>
<wgt id='1637'> -7.4404066e+01 </wgt>
<wgt id='1638'> -7.4404566e+01 </wgt>
<wgt id='1639'> -7.4402991e+01 </wgt>
<wgt id='1640'> -7.4437118e+01 </wgt>
<wgt id='1641'> -7.4437121e+01 </wgt>
<wgt id='1642'> -7.4342647e+01 </wgt>
<wgt id='1643'> -7.4387286e+01 </wgt>
<wgt id='1644'> -7.4410782e+01 </wgt>
<wgt id='1645'> -7.4381951e+01 </wgt>
<wgt id='1646'> -7.4364591e+01 </wgt>
<wgt id='1647'> -7.4369032e+01 </wgt>
<wgt id='1648'> -7.4372008e+01 </wgt>
<wgt id='1649'> -7.4482118e+01 </wgt>
<wgt id='1650'> -7.4416393e+01 </wgt>
<wgt id='1651'> -7.4401594e+01 </wgt>
<wgt id='1652'> -7.4377982e+01 </wgt>
<wgt id='1653'> -7.4346222e+01 </wgt>
<wgt id='1654'> -7.4363670e+01 </wgt>
<wgt id='1655'> -7.4404363e+01 </wgt>
<wgt id='1656'> -7.4304022e+01 </wgt>
<wgt id='1657'> -7.4363490e+01 </wgt>
<wgt id='1658'> -7.4354231e+01 </wgt>
<wgt id='1659'> -7.4392092e+01 </wgt>
<wgt id='1660'> -7.4359133e+01 </wgt>
<wgt id='1661'> -7.4359403e+01 </wgt>
<wgt id='1662'> -7.4352667e+01 </wgt>
<wgt id='1663'> -7.4375023e+01 </wgt>
<wgt id='1664'> -7.4395637e+01 </wgt>
<wgt id='1665'> -7.4364961e+01 </wgt>
<wgt id='1666'> -7.4385038e+01 </wgt>
<wgt id='1667'> -7.4374563e+01 </wgt>
<wgt id='1668'> -7.4359648e+01 </wgt>
<wgt id='1669'> -7.4382653e+01 </wgt>
<wgt id='1670'> -7.2949332e+01 </wgt>
<wgt id='1671'> -7.5815586e+01 </wgt>
<wgt id='1672'> -7.5119000e+01 </wgt>
<wgt id='1673'> -7.5508944e+01 </wgt>
<wgt id='1674'> -7.5991488e+01 </wgt>
<wgt id='1675'> -7.5086615e+01 </wgt>
<wgt id='1676'> -7.4210586e+01 </wgt>
<wgt id='1677'> -7.6623212e+01 </wgt>
<wgt id='1678'> -7.4759125e+01 </wgt>
<wgt id='1679'> -7.5038617e+01 </wgt>
<wgt id='1680'> -7.5290445e+01 </wgt>
<wgt id='1681'> -7.4976834e+01 </wgt>
<wgt id='1682'> -7.5217075e+01 </wgt>
<wgt id='1683'> -7.4470597e+01 </wgt>
<wgt id='1684'> -7.5130212e+01 </wgt>
<wgt id='1685'> -7.5247540e+01 </wgt>
<wgt id='1686'> -7.4931695e+01 </wgt>
<wgt id='1687'> -7.5123999e+01 </wgt>
<wgt id='1688'> -7.4926505e+01 </wgt>
<wgt id='1689'> -7.5653994e+01 </wgt>
<wgt id='1690'> -7.5161026e+01 </wgt>
<wgt id='1691'> -7.4928795e+01 </wgt>
<wgt id='1692'> -7.4822114e+01 </wgt>
<wgt id='1693'> -7.5152017e+01 </wgt>
<wgt id='1694'> -7.5064678e+01 </wgt>
<wgt id='1695'> -7.5105655e+01 </wgt>
<wgt id='1696'> -7.5070936e+01 </wgt>
<wgt id='1697'> -7.5108106e+01 </wgt>
<wgt id='1698'> -7.5371706e+01 </wgt>
<wgt id='1699'> -7.5270713e+01 </wgt>
<wgt id='1700'> -7.5801336e+01 </wgt>
<wgt id='1701'> -7.4982359e+01 </wgt>
<wgt id='1702'> -7.5127006e+01 </wgt>
<wgt id='1703'> -7.3538870e+01 </wgt>
<wgt id='1704'> -7.6692490e+01 </wgt>
<wgt id='1705'> -7.4378119e+01 </wgt>
<wgt id='1706'> -7.3775246e+01 </wgt>
<wgt id='1707'> -7.4627309e+01 </wgt>
<wgt id='1708'> -7.4400460e+01 </wgt>
<wgt id='1709'> -7.4427580e+01 </wgt>
<wgt id='1710'> -7.3824978e+01 </wgt>
<wgt id='1711'> -7.4505352e+01 </wgt>
<wgt id='1712'> -7.4263270e+01 </wgt>
<wgt id='1713'> -7.4300241e+01 </wgt>
<wgt id='1714'> -7.4736914e+01 </wgt>
<wgt id='1715'> -7.3398771e+01 </wgt>
<wgt id='1716'> -7.3523158e+01 </wgt>
<wgt id='1717'> -7.4368496e+01 </wgt>
<wgt id='1718'> -7.4585885e+01 </wgt>
<wgt id='1719'> -7.4325056e+01 </wgt>
<wgt id='1720'> -7.4283622e+01 </wgt>
<wgt id='1721'> -7.4283054e+01 </wgt>
<wgt id='1722'> -7.5015003e+01 </wgt>
<wgt id='1723'> -7.4362869e+01 </wgt>
<wgt id='1724'> -7.4255144e+01 </wgt>
<wgt id='1725'> -7.4971214e+01 </wgt>
<wgt id='1726'> -7.4690812e+01 </wgt>
<wgt id='1727'> -7.5375124e+01 </wgt>
<wgt id='1728'> -7.4429395e+01 </wgt>
<wgt id='1729'> -7.4257650e+01 </wgt>
<wgt id='1730'> -7.4501259e+01 </wgt>
<wgt id='1731'> -7.4564247e+01 </wgt>
<wgt id='1732'> -7.4180985e+01 </wgt>
<wgt id='1733'> -7.4352801e+01 </wgt>
<wgt id='1734'> -7.4683108e+01 </wgt>
<wgt id='1735'> -7.4428465e+01 </wgt>
<wgt id='1736'> -7.2949332e+01 </wgt>
<wgt id='1737'> -7.5815586e+01 </wgt>
<wgt id='1738'> -7.6978796e+01 </wgt>
<wgt id='1739'> -7.6886461e+01 </wgt>
<wgt id='1740'> -7.7070817e+01 </wgt>
<wgt id='1741'> -7.7027069e+01 </wgt>
<wgt id='1742'> -7.6930411e+01 </wgt>
<wgt id='1743'> -7.7139786e+01 </wgt>
<wgt id='1744'> -7.6818301e+01 </wgt>
<wgt id='1745'> -7.7342762e+01 </wgt>
<wgt id='1746'> -7.6622814e+01 </wgt>
<wgt id='1747'> -7.6993132e+01 </wgt>
<wgt id='1748'> -7.6966278e+01 </wgt>
<wgt id='1749'> -7.6571011e+01 </wgt>
<wgt id='1750'> -7.7444466e+01 </wgt>
<wgt id='1751'> -7.6697336e+01 </wgt>
<wgt id='1752'> -7.7265196e+01 </wgt>
<wgt id='1753'> -7.6963703e+01 </wgt>
<wgt id='1754'> -7.6822354e+01 </wgt>
<wgt id='1755'> -7.7326624e+01 </wgt>
<wgt id='1756'> -7.6772330e+01 </wgt>
<wgt id='1757'> -7.6804703e+01 </wgt>
<wgt id='1758'> -7.7079836e+01 </wgt>
<wgt id='1759'> -7.7051720e+01 </wgt>
<wgt id='1760'> -7.6883030e+01 </wgt>
<wgt id='1761'> -7.6642148e+01 </wgt>
<wgt id='1762'> -7.7080607e+01 </wgt>
<wgt id='1763'> -7.6984476e+01 </wgt>
<wgt id='1764'> -7.7036583e+01 </wgt>
<wgt id='1765'> -7.7651065e+01 </wgt>
<wgt id='1766'> -7.6379664e+01 </wgt>
<wgt id='1767'> -7.6978796e+01 </wgt>
<wgt id='1768'> -7.5423476e+01 </wgt>
<wgt id='1769'> -7.8625202e+01 </wgt>
<wgt id='1770'> -7.3830602e+01 </wgt>
<wgt id='1771'> -7.5771442e+01 </wgt>
<wgt id='1772'> -7.7201896e+01 </wgt>
<wgt id='1773'> -7.6885063e+01 </wgt>
<wgt id='1774'> -7.6828578e+01 </wgt>
<wgt id='1775'> -7.7142813e+01 </wgt>
<wgt id='1776'> -7.7170705e+01 </wgt>
<wgt id='1777'> -7.6795776e+01 </wgt>
<wgt id='1778'> -7.6823836e+01 </wgt>
<wgt id='1779'> -7.6809129e+01 </wgt>
<wgt id='1780'> -7.5720929e+01 </wgt>
<wgt id='1781'> -7.4705105e+01 </wgt>
<wgt id='1782'> -7.4631719e+01 </wgt>
<wgt id='1783'> -7.4759358e+01 </wgt>
<wgt id='1784'> -7.4655409e+01 </wgt>
<wgt id='1785'> -7.4736062e+01 </wgt>
<wgt id='1786'> -7.4824450e+01 </wgt>
<wgt id='1787'> -7.4567006e+01 </wgt>
<wgt id='1788'> -7.5102755e+01 </wgt>
<wgt id='1789'> -7.4300237e+01 </wgt>
<wgt id='1790'> -7.4468827e+01 </wgt>
<wgt id='1791'> -7.4932380e+01 </wgt>
<wgt id='1792'> -7.4967035e+01 </wgt>
<wgt id='1793'> -7.4426743e+01 </wgt>
<wgt id='1794'> -7.4542769e+01 </wgt>
<wgt id='1795'> -7.4840659e+01 </wgt>
<wgt id='1796'> -7.4534856e+01 </wgt>
<wgt id='1797'> -7.4628067e+01 </wgt>
<wgt id='1798'> -7.4767137e+01 </wgt>
<wgt id='1799'> -7.4624089e+01 </wgt>
<wgt id='1800'> -7.4468005e+01 </wgt>
<wgt id='1801'> -7.4931218e+01 </wgt>
<wgt id='1802'> -7.4594425e+01 </wgt>
<wgt id='1803'> -7.4758038e+01 </wgt>
<wgt id='1804'> -7.4785644e+01 </wgt>
<wgt id='1805'> -7.4622010e+01 </wgt>
<wgt id='1806'> -7.4394613e+01 </wgt>
<wgt id='1807'> -7.4920121e+01 </wgt>
<wgt id='1808'> -7.4742960e+01 </wgt>
<wgt id='1809'> -7.4724111e+01 </wgt>
<wgt id='1810'> -7.4678671e+01 </wgt>
<wgt id='1811'> -7.3236790e+01 </wgt>
<wgt id='1812'> -7.6060655e+01 </wgt>
<wgt id='1813'> -7.1675639e+01 </wgt>
<wgt id='1814'> -7.3522825e+01 </wgt>
<wgt id='1815'> -7.4765378e+01 </wgt>
<wgt id='1816'> -7.4060324e+01 </wgt>
<wgt id='1817'> -7.4512330e+01 </wgt>
<wgt id='1818'> -7.4922404e+01 </wgt>
<wgt id='1819'> -7.4954067e+01 </wgt>
<wgt id='1820'> -7.4392603e+01 </wgt>
<wgt id='1821'> -7.4753504e+01 </wgt>
<wgt id='1822'> -7.4800778e+01 </wgt>
<wgt id='1823'> -7.4416678e+01 </wgt>
<wgt id='1824'> -7.3149344e+01 </wgt>
<wgt id='1825'> -7.3138038e+01 </wgt>
<wgt id='1826'> -7.3126639e+01 </wgt>
<wgt id='1827'> -7.3115579e+01 </wgt>
<wgt id='1828'> -7.3104375e+01 </wgt>
<wgt id='1829'> -7.3093035e+01 </wgt>
<wgt id='1830'> -7.3081833e+01 </wgt>
<wgt id='1831'> -7.3070450e+01 </wgt>
<wgt id='1832'> -7.3059161e+01 </wgt>
<wgt id='1833'> -7.3048119e+01 </wgt>
<wgt id='1834'> -7.3036659e+01 </wgt>
<wgt id='1835'> -7.3025631e+01 </wgt>
<wgt id='1836'> -7.3014259e+01 </wgt>
<wgt id='1837'> -7.3003130e+01 </wgt>
<wgt id='1838'> -7.2991518e+01 </wgt>
<wgt id='1839'> -7.2980407e+01 </wgt>
<wgt id='1840'> -7.2969244e+01 </wgt>
<wgt id='1841'> -7.2958053e+01 </wgt>
<wgt id='1842'> -7.2946725e+01 </wgt>
<wgt id='1843'> -7.2935519e+01 </wgt>
<wgt id='1844'> -7.2924042e+01 </wgt>
<wgt id='1845'> -7.2913032e+01 </wgt>
<wgt id='1846'> -7.2901847e+01 </wgt>
<wgt id='1847'> -7.2890523e+01 </wgt>
<wgt id='1848'> -7.2879347e+01 </wgt>
<wgt id='1849'> -7.2868142e+01 </wgt>
<wgt id='1850'> -7.2856668e+01 </wgt>
<wgt id='1851'> -7.2845439e+01 </wgt>
<wgt id='1852'> -7.2834338e+01 </wgt>
<wgt id='1853'> -7.2823026e+01 </wgt>
<wgt id='1854'> -7.2811932e+01 </wgt>
<wgt id='1855'> -7.3520076e+01 </wgt>
<wgt id='1856'> -7.3662229e+01 </wgt>
<wgt id='1857'> -7.3689341e+01 </wgt>
<wgt id='1858'> -7.3212692e+01 </wgt>
<wgt id='1859'> -7.3543012e+01 </wgt>
<wgt id='1860'> -7.4044420e+01 </wgt>
<wgt id='1861'> -7.3161508e+01 </wgt>
<wgt id='1862'> -7.2606498e+01 </wgt>
<wgt id='1863'> -7.3274194e+01 </wgt>
<wgt id='1864'> -7.3745005e+01 </wgt>
<wgt id='1865'> -7.3256130e+01 </wgt>
<wgt id='1866'> -7.4196608e+01 </wgt>
<wgt id='1867'> -7.3816317e+01 </wgt>
<wgt id='1868'> -7.2871250e+01 </wgt>
<wgt id='1869'> -7.2942991e+01 </wgt>
<wgt id='1870'> -7.3292147e+01 </wgt>
<wgt id='1871'> -7.4290521e+01 </wgt>
<wgt id='1872'> -7.3751375e+01 </wgt>
<wgt id='1873'> -7.2864181e+01 </wgt>
<wgt id='1874'> -7.3749750e+01 </wgt>
<wgt id='1875'> -7.3862169e+01 </wgt>
<wgt id='1876'> -7.3455738e+01 </wgt>
<wgt id='1877'> -7.4225663e+01 </wgt>
<wgt id='1878'> -7.3733621e+01 </wgt>
<wgt id='1879'> -7.3136375e+01 </wgt>
<wgt id='1880'> -7.3484375e+01 </wgt>
<wgt id='1881'> -7.3957695e+01 </wgt>
<wgt id='1882'> -7.3216483e+01 </wgt>
<wgt id='1883'> -7.3675096e+01 </wgt>
<wgt id='1884'> -7.3794454e+01 </wgt>
<wgt id='1885'> -7.3543247e+01 </wgt>
<wgt id='1886'> -7.3577498e+01 </wgt>
<wgt id='1887'> -7.3561375e+01 </wgt>
<wgt id='1888'> -7.3663206e+01 </wgt>
<wgt id='1889'> -7.3404468e+01 </wgt>
<wgt id='1890'> -7.3596607e+01 </wgt>
<wgt id='1891'> -7.3503045e+01 </wgt>
<wgt id='1892'> -7.3815956e+01 </wgt>
<wgt id='1893'> -7.3622038e+01 </wgt>
<wgt id='1894'> -7.3442188e+01 </wgt>
<wgt id='1895'> -7.3434000e+01 </wgt>
<wgt id='1896'> -7.3356688e+01 </wgt>
<wgt id='1897'> -7.3447010e+01 </wgt>
<wgt id='1898'> -7.3397190e+01 </wgt>
<wgt id='1899'> -7.3610707e+01 </wgt>
<wgt id='1900'> -7.3541943e+01 </wgt>
<wgt id='1901'> -7.3377869e+01 </wgt>
<wgt id='1902'> -7.3433787e+01 </wgt>
<wgt id='1903'> -7.3581590e+01 </wgt>
<wgt id='1904'> -7.3594090e+01 </wgt>
<wgt id='1905'> -7.3423659e+01 </wgt>
<wgt id='1906'> -7.3474129e+01 </wgt>
<wgt id='1907'> -7.3545583e+01 </wgt>
<wgt id='1908'> -7.3486081e+01 </wgt>
<wgt id='1909'> -7.3493864e+01 </wgt>
<wgt id='1910'> -7.3636306e+01 </wgt>
<wgt id='1911'> -7.3530263e+01 </wgt>
<wgt id='1912'> -7.3427345e+01 </wgt>
<wgt id='1913'> -7.3400619e+01 </wgt>
<wgt id='1914'> -7.3456996e+01 </wgt>
<wgt id='1915'> -7.3429634e+01 </wgt>
<wgt id='1916'> -7.3531365e+01 </wgt>
<wgt id='1917'> -7.3597650e+01 </wgt>
<wgt id='1918'> -7.3549885e+01 </wgt>
<wgt id='1919'> -7.3544525e+01 </wgt>
<wgt id='1920'> -7.3507960e+01 </wgt>
<wgt id='1921'> -7.3487998e+01 </wgt>
<wgt id='1922'> -7.3514017e+01 </wgt>
<wgt id='1923'> -7.3543448e+01 </wgt>
<wgt id='1924'> -7.3542390e+01 </wgt>
<wgt id='1925'> -7.3540812e+01 </wgt>
<wgt id='1926'> -7.3578660e+01 </wgt>
<wgt id='1927'> -7.3575987e+01 </wgt>
<wgt id='1928'> -7.3482832e+01 </wgt>
<wgt id='1929'> -7.3528012e+01 </wgt>
<wgt id='1930'> -7.3550789e+01 </wgt>
<wgt id='1931'> -7.3523863e+01 </wgt>
<wgt id='1932'> -7.3506536e+01 </wgt>
<wgt id='1933'> -7.3510616e+01 </wgt>
<wgt id='1934'> -7.3511706e+01 </wgt>
<wgt id='1935'> -7.3621106e+01 </wgt>
<wgt id='1936'> -7.3555680e+01 </wgt>
<wgt id='1937'> -7.3543003e+01 </wgt>
<wgt id='1938'> -7.3518497e+01 </wgt>
<wgt id='1939'> -7.3485427e+01 </wgt>
<wgt id='1940'> -7.3504627e+01 </wgt>
<wgt id='1941'> -7.3544705e+01 </wgt>
<wgt id='1942'> -7.3444988e+01 </wgt>
<wgt id='1943'> -7.3503232e+01 </wgt>
<wgt id='1944'> -7.3494561e+01 </wgt>
<wgt id='1945'> -7.3531788e+01 </wgt>
<wgt id='1946'> -7.3498235e+01 </wgt>
<wgt id='1947'> -7.3499703e+01 </wgt>
<wgt id='1948'> -7.3493007e+01 </wgt>
<wgt id='1949'> -7.3513975e+01 </wgt>
<wgt id='1950'> -7.3536574e+01 </wgt>
<wgt id='1951'> -7.3504700e+01 </wgt>
<wgt id='1952'> -7.3525274e+01 </wgt>
<wgt id='1953'> -7.3514799e+01 </wgt>
<wgt id='1954'> -7.3499955e+01 </wgt>
<wgt id='1955'> -7.3522143e+01 </wgt>
<wgt id='1956'> -7.3519247e+01 </wgt>
<wgt id='1957'> -7.3524622e+01 </wgt>
<wgt id='1958'> -7.3520954e+01 </wgt>
<wgt id='1959'> -7.3521095e+01 </wgt>
<wgt id='1960'> -7.3522635e+01 </wgt>
<wgt id='1961'> -7.3520448e+01 </wgt>
<wgt id='1962'> -7.3525601e+01 </wgt>
</rwgt>
</event>
<event npLO=" -1 " npNLO=" 0 ">
 7      0 +1.5146096e+02 3.89582660e+01 7.54677110e-03 1.17939110e-01
       -1 -1    0    0    0  501 +0.0000000000e+00 +0.0000000000e+00 +3.4638201000e+02 3.4638201000e+02 0.0000000000e+00 0.0000e+00 9.0000e+00
       21 -1    0    0  501  502 +0.0000000000e+00 +0.0000000000e+00 -1.2685140000e+01 1.2685140000e+01 0.0000000000e+00 0.0000e+00 9.0000e+00
       23  2    1    2    0    0 +3.7049580000e-01 -2.2626175000e+00 +3.4013634000e+02 3.5223170000e+02 9.1483231000e+01 0.0000e+00 0.0000e+00
       15  1    3    3    0    0 -1.5306013000e+01 +3.4527301000e+01 +2.5859249000e+02 2.6134200000e+02 1.7770000000e+00 0.0000e+00 9.0000e+00
      -15  1    3    3    0    0 +5.2299097000e+00 -1.4451703000e+01 +3.0342323000e+01 3.4059037000e+01 1.7770000000e+00 0.0000e+00 9.0000e+00
       22  1    3    3    0    0 +1.0446599000e+01 -2.2338215000e+01 +5.1201529000e+01 5.6830659000e+01 0.0000000000e+00 0.0000e+00 9.0000e+00
       -1  1    1    2    0  502 -3.7049580000e-01 +2.2626175000e+00 -6.4394679000e+00 6.8354555000e+00 0.0000000000e+00 0.0000e+00 9.0000e+00
#aMCatNLO 2  0  0  2  1 0.16427600E+02 0.00000000E+00 -9  6  0 0.00000000E+00 0.00000000E+00 0.00000000E+00 0.00000000E+00 0.00000000E+00
<rwgt>
<wgt id='1001'> +1.5146000e+02 </wgt>
<wgt id='1002'> +1.5146000e+02 </wgt>
<wgt id='1003'> +1.3703000e+02 </wgt>
<wgt id='1004'> +1.4915000e+02 </wgt>
<wgt id='1005'> +1.5219000e+02 </wgt>
<wgt id='1006'> +1.5023000e+02 </wgt>
<wgt id='1007'> +1.5029000e+02 </wgt>
<wgt id='1008'> +1.4610000e+02 </wgt>
<wgt id='1009'> +1.5008000e+02 </wgt>
<wgt id='1010'> +1.4912000e+02 </wgt>
<wgt id='1011'> +1.5587000e+02 </wgt>
<wgt id='1012'> +1.5430000e+02 </wgt>
<wgt id='1013'> +1.4921000e+02 </wgt>
<wgt id='1014'> +1.5300000e+02 </wgt>
<wgt id='1015'> +1.5443000e+02 </wgt>
<wgt id='1016'> +1.5284000e+02 </wgt>
<wgt id='1017'> +1.5132000e+02 </wgt>
<wgt id='1018'> +1.6169000e+02 </wgt>
<wgt id='1019'> +1.4832000e+02 </wgt>
<wgt id='1020'> +1.4695000e+02 </wgt>
<wgt id='1021'> +1.5161000e+02 </wgt>
<wgt id='1022'> +1.5894000e+02 </wgt>
<wgt id='1023'> +1.5486000e+02 </wgt>
<wgt id='1024'> +1.5072000e+02 </wgt>
<wgt id='1025'> +1.6391000e+02 </wgt>
<wgt id='1026'> +1.6232000e+02 </wgt>
<wgt id='1027'> +1.5346000e+02 </wgt>
<wgt id='1028'> +1.5044000e+02 </wgt>
<wgt id='1029'> +1.5165000e+02 </wgt>
<wgt id='1030'> +1.5182000e+02 </wgt>
<wgt id='1031'> +1.4898000e+02 </wgt>
<wgt id='1032'> +1.5379000e+02 </wgt>
<wgt id='1033'> +1.5842000e+02 </wgt>
<wgt id='1034'> +1.5301000e+02 </wgt>
<wgt id='1035'> +1.5352000e+02 </wgt>
<wgt id='1036'> +1.5604000e+02 </wgt>
<wgt id='1037'> +1.5662000e+02 </wgt>
<wgt id='1038'> +1.5141000e+02 </wgt>
<wgt id='1039'> +1.5400000e+02 </wgt>
<wgt id='1040'> +1.5226000e+02 </wgt>
<wgt id='1041'> +1.4200000e+02 </wgt>
<wgt id='1042'> +1.5304000e+02 </wgt>
<wgt id='1043'> +1.4211000e+02 </wgt>
<wgt id='1044'> +1.5042000e+02 </wgt>
<wgt id='1045'> +1.5258000e+02 </wgt>
<wgt id='1046'> +1.5184000e+02 </wgt>
<wgt id='1047'> +1.5015000e+02 </wgt>
<wgt id='1048'> +1.4564000e+02 </wgt>
<wgt id='1049'> +1.4721000e+02 </wgt>
<wgt id='1050'> +1.4953000e+02 </wgt>
<wgt id='1051'> +1.5431000e+02 </wgt>
<wgt id='1052'> +1.5005000e+02 </wgt>
<wgt id='1053'> +1.4729000e+02 </wgt>
<wgt id='1054'> +1.5162000e+02 </wgt>
<wgt id='1055'> +1.5999000e+02 </wgt>
<wgt id='1056'> +1.5212000e+02 </wgt>
<wgt id='1057'> +1.5511000e+02 </wgt>
<wgt id='1058'> +1.4353000e+02 </wgt>
<wgt id='1059'> +1.4367000e+02 </wgt>
<wgt id='1060'> +1.4677000e+02 </wgt>
<wgt id='1061'> +1.5730000e+02 </wgt>
<wgt id='1062'> +1.5040000e+02 </wgt>
<wgt id='1063'> +1.5017000e+02 </wgt>
<wgt id='1064'> +1.5181000e+02 </wgt>
<wgt id='1065'> +1.5692000e+02 </wgt>
<wgt id='1066'> +1.4132000e+02 </wgt>
<wgt id='1067'> +1.5371000e+02 </wgt>
<wgt id='1068'> +1.5751000e+02 </wgt>
<wgt id='1069'> +1.4855000e+02 </wgt>
<wgt id='1070'> +1.4972000e+02 </wgt>
<wgt id='1071'> +1.5319000e+02 </wgt>
<wgt id='1072'> +1.5949000e+02 </wgt>
<wgt id='1073'> +1.5140000e+02 </wgt>
<wgt id='1074'> +1.5609000e+02 </wgt>
<wgt id='1075'> +1.3900000e+02 </wgt>
<wgt id='1076'> +1.5837000e+02 </wgt>
<wgt id='1077'> +1.4694000e+02 </wgt>
<wgt id='1078'> +1.5565000e+02 </wgt>
<wgt id='1079'> +1.5421000e+02 </wgt>
<wgt id='1080'> +1.5289000e+02 </wgt>
<wgt id='1081'> +1.4811000e+02 </wgt>
<wgt id='1082'> +1.5688000e+02 </wgt>
<wgt id='1083'> +1.5327000e+02 </wgt>
<wgt id='1084'> +1.5033000e+02 </wgt>
<wgt id='1085'> +1.4508000e+02 </wgt>
<wgt id='1086'> +1.5190000e+02 </wgt>
<wgt id='1087'> +1.5193000e+02 </wgt>
<wgt id='1088'> +1.4987000e+02 </wgt>
<wgt id='1089'> +1.4802000e+02 </wgt>
<wgt id='1090'> +1.4570000e+02 </wgt>
<wgt id='1091'> +1.5188000e+02 </wgt>
<wgt id='1092'> +1.5589000e+02 </wgt>
<wgt id='1093'> +1.4766000e+02 </wgt>
<wgt id='1094'> +1.5767000e+02 </wgt>
<wgt id='1095'> +1.5054000e+02 </wgt>
<wgt id='1096'> +1.5232000e+02 </wgt>
<wgt id='1097'> +1.4316000e+02 </wgt>
<wgt id='1098'> +1.4956000e+02 </wgt>
<wgt id='1099'> +1.5880000e+02 </wgt>
<wgt id='1100'> +1.5347000e+02 </wgt>
<wgt id='1101'> +1.4952000e+02 </wgt>
<wgt id='1102'> +1.4200000e+02 </wgt>
<wgt id='1103'> +1.5011000e+02 </wgt>
<wgt id='1104'> +1.5130000e+02 </wgt>
<wgt id='1105'> +1.5146096e+02 </wgt>
<wgt id='1106'> +6.8579740e+01 </wgt>
<wgt id='1107'> +8.4586259e+01 </wgt>
<wgt id='1108'> +8.1543264e+01 </wgt>
<wgt id='1109'> +7.3843660e+01 </wgt>
<wgt id='1110'> +9.1078779e+01 </wgt>
<wgt id='1111'> +6.8566966e+01 </wgt>
<wgt id='1112'> +6.2092629e+01 </wgt>
<wgt id='1113'> +7.6585056e+01 </wgt>
<wgt id='1114'> +7.8706702e+01 </wgt>
<wgt id='1115'> +8.6635367e+01 </wgt>
<wgt id='1116'> +7.7877204e+01 </wgt>
<wgt id='1117'> +8.2477528e+01 </wgt>
<wgt id='1118'> +8.1987145e+01 </wgt>
<wgt id='1119'> +7.6539706e+01 </wgt>
<wgt id='1120'> +7.6955914e+01 </wgt>
<wgt id='1121'> +7.6598312e+01 </wgt>
<wgt id='1122'> +7.7647557e+01 </wgt>
<wgt id='1123'> +7.5629927e+01 </wgt>
<wgt id='1124'> +7.6775126e+01 </wgt>
<wgt id='1125'> +7.9592175e+01 </wgt>
<wgt id='1126'> +7.6402598e+01 </wgt>
<wgt id='1127'> +7.9636331e+01 </wgt>
<wgt id='1128'> +7.8838027e+01 </wgt>
<wgt id='1129'> +7.6700910e+01 </wgt>
<wgt id='1130'> +7.7688145e+01 </wgt>
<wgt id='1131'> +8.1236309e+01 </wgt>
<wgt id='1132'> +7.8999202e+01 </wgt>
<wgt id='1133'> +8.1817943e+01 </wgt>
<wgt id='1134'> +7.6834704e+01 </wgt>
<wgt id='1135'> +7.9632125e+01 </wgt>
<wgt id='1136'> +8.3398144e+01 </wgt>
<wgt id='1137'> +7.8764818e+01 </wgt>
<wgt id='1138'> +7.9817860e+01 </wgt>
<wgt id='1139'> +7.5924057e+01 </wgt>
<wgt id='1140'> +8.0442868e+01 </wgt>
<wgt id='1141'> +8.6364533e+01 </wgt>
<wgt id='1142'> +7.9057035e+01 </wgt>
<wgt id='1143'> +7.6010588e+01 </wgt>
<wgt id='1144'> +7.6571615e+01 </wgt>
<wgt id='1145'> +8.1615125e+01 </wgt>
<wgt id='1146'> +7.7209210e+01 </wgt>
<wgt id='1147'> +8.2985789e+01 </wgt>
<wgt id='1148'> +7.7301533e+01 </wgt>
<wgt id='1149'> +8.1406876e+01 </wgt>
<wgt id='1150'> +7.8492212e+01 </wgt>
<wgt id='1151'> +8.1059609e+01 </wgt>
<wgt id='1152'> +7.7701868e+01 </wgt>
<wgt id='1153'> +7.6701898e+01 </wgt>
<wgt id='1154'> +7.9405506e+01 </wgt>
<wgt id='1155'> +8.1294758e+01 </wgt>
<wgt id='1156'> +7.8311601e+01 </wgt>
<wgt id='1157'> +8.4446653e+01 </wgt>
<wgt id='1158'> +7.7756774e+01 </wgt>
<wgt id='1159'> +7.8799450e+01 </wgt>
<wgt id='1160'> +7.8360608e+01 </wgt>
<wgt id='1161'> +7.7901994e+01 </wgt>
<wgt id='1162'> +8.0721584e+01 </wgt>
<wgt id='1163'> +7.6419348e+01 </wgt>
<wgt id='1164'> +7.8629674e+01 </wgt>
<wgt id='1165'> +7.7172657e+01 </wgt>
<wgt id='1166'> +7.5535867e+01 </wgt>
<wgt id='1167'> +7.8100565e+01 </wgt>
<wgt id='1168'> +8.0962510e+01 </wgt>
<wgt id='1169'> +8.4079386e+01 </wgt>
<wgt id='1170'> +7.8678829e+01 </wgt>
<wgt id='1171'> +8.0289148e+01 </wgt>
<wgt id='1172'> +7.9576252e+01 </wgt>
<wgt id='1173'> +7.4619605e+01 </wgt>
<wgt id='1174'> +8.0332857e+01 </wgt>
<wgt id='1175'> +7.8566571e+01 </wgt>
<wgt id='1176'> +7.8483480e+01 </wgt>
<wgt id='1177'> +8.1140977e+01 </wgt>
<wgt id='1178'> +8.0791951e+01 </wgt>
<wgt id='1179'> +8.0861012e+01 </wgt>
<wgt id='1180'> +7.3929687e+01 </wgt>
<wgt id='1181'> +8.1639956e+01 </wgt>
<wgt id='1182'> +7.7662603e+01 </wgt>
<wgt id='1183'> +7.4843859e+01 </wgt>
<wgt id='1184'> +7.7608405e+01 </wgt>
<wgt id='1185'> +7.8683343e+01 </wgt>
<wgt id='1186'> +7.6842074e+01 </wgt>
<wgt id='1187'> +7.2143544e+01 </wgt>
<wgt id='1188'> +7.6804071e+01 </wgt>
<wgt id='1189'> +7.5353552e+01 </wgt>
<wgt id='1190'> +8.2477087e+01 </wgt>
<wgt id='1191'> +7.8873526e+01 </wgt>
<wgt id='1192'> +7.6326264e+01 </wgt>
<wgt id='1193'> +7.6926726e+01 </wgt>
<wgt id='1194'> +8.2574348e+01 </wgt>
<wgt id='1195'> +8.1014413e+01 </wgt>
<wgt id='1196'> +7.7688145e+01 </wgt>
<wgt id='1197'> +7.8233493e+01 </wgt>
<wgt id='1198'> +7.8834845e+01 </wgt>
<wgt id='1199'> +7.7378915e+01 </wgt>
<wgt id='1200'> +8.0145851e+01 </wgt>
<wgt id='1201'> +7.6440101e+01 </wgt>
<wgt id='1202'> +8.1432889e+01 </wgt>
<wgt id='1203'> +6.8694309e+01 </wgt>
<wgt id='1204'> +7.6060120e+01 </wgt>
<wgt id='1205'> +7.8111869e+01 </wgt>
<wgt id='1206'> +6.9741584e+01 </wgt>
<wgt id='1207'> +7.6295658e+01 </wgt>
<wgt id='1208'> +7.6889488e+01 </wgt>
<wgt id='1209'> +8.0054703e+01 </wgt>
<wgt id='1210'> +7.7466990e+01 </wgt>
<wgt id='1211'> +8.2664208e+01 </wgt>
<wgt id='1212'> +8.1124326e+01 </wgt>
<wgt id='1213'> +8.0489322e+01 </wgt>
<wgt id='1214'> +8.0401971e+01 </wgt>
<wgt id='1215'> +7.4396827e+01 </wgt>
<wgt id='1216'> +8.0511934e+01 </wgt>
<wgt id='1217'> +8.0609929e+01 </wgt>
<wgt id='1218'> +8.0240628e+01 </wgt>
<wgt id='1219'> +8.0579339e+01 </wgt>
<wgt id='1220'> +8.0869410e+01 </wgt>
<wgt id='1221'> +8.0341353e+01 </wgt>
<wgt id='1222'> +8.0567956e+01 </wgt>
<wgt id='1223'> +8.0098065e+01 </wgt>
<wgt id='1224'> +8.0067650e+01 </wgt>
<wgt id='1225'> +8.0076330e+01 </wgt>
<wgt id='1226'> +8.0056428e+01 </wgt>
<wgt id='1227'> +8.0805822e+01 </wgt>
<wgt id='1228'> +8.0700895e+01 </wgt>
<wgt id='1229'> +8.0264529e+01 </wgt>
<wgt id='1230'> +8.0911313e+01 </wgt>
<wgt id='1231'> +8.0272728e+01 </wgt>
<wgt id='1232'> +8.0522598e+01 </wgt>
<wgt id='1233'> +8.0356074e+01 </wgt>
<wgt id='1234'> +8.0467980e+01 </wgt>
<wgt id='1235'> +8.0446761e+01 </wgt>
<wgt id='1236'> +8.0505754e+01 </wgt>
<wgt id='1237'> +8.0796668e+01 </wgt>
<wgt id='1238'> +8.0564179e+01 </wgt>
<wgt id='1239'> +8.0823351e+01 </wgt>
<wgt id='1240'> +8.0507743e+01 </wgt>
<wgt id='1241'> +8.0340757e+01 </wgt>
<wgt id='1242'> +8.0332370e+01 </wgt>
<wgt id='1243'> +8.0928082e+01 </wgt>
<wgt id='1244'> +8.0534347e+01 </wgt>
<wgt id='1245'> +8.0641268e+01 </wgt>
<wgt id='1246'> +8.0810866e+01 </wgt>
<wgt id='1247'> +8.1039954e+01 </wgt>
<wgt id='1248'> +7.9786321e+01 </wgt>
<wgt id='1249'> +8.0694175e+01 </wgt>
<wgt id='1250'> +8.0494743e+01 </wgt>
<wgt id='1251'> +7.9871703e+01 </wgt>
<wgt id='1252'> +7.9692983e+01 </wgt>
<wgt id='1253'> +8.0456197e+01 </wgt>
<wgt id='1254'> +7.9856558e+01 </wgt>
<wgt id='1255'> +8.0293497e+01 </wgt>
<wgt id='1256'> +8.0382697e+01 </wgt>
<wgt id='1257'> +7.9803396e+01 </wgt>
<wgt id='1258'> +8.0444027e+01 </wgt>
<wgt id='1259'> +8.1193986e+01 </wgt>
<wgt id='1260'> +8.0119365e+01 </wgt>
<wgt id='1261'> +8.0446852e+01 </wgt>
<wgt id='1262'> +8.0200907e+01 </wgt>
<wgt id='1263'> +8.0735346e+01 </wgt>
<wgt id='1264'> +8.0733807e+01 </wgt>
<wgt id='1265'> +8.0490754e+01 </wgt>
<wgt id='1266'> +8.0979944e+01 </wgt>
<wgt id='1267'> +8.0885051e+01 </wgt>
<wgt id='1268'> +8.0494786e+01 </wgt>
<wgt id='1269'> +8.0381560e+01 </wgt>
<wgt id='1270'> +8.0696073e+01 </wgt>
<wgt id='1271'> +8.0519504e+01 </wgt>
<wgt id='1272'> +8.0424045e+01 </wgt>
<wgt id='1273'> +8.0210792e+01 </wgt>
<wgt id='1274'> +8.0025139e+01 </wgt>
<wgt id='1275'> +8.0562084e+01 </wgt>
<wgt id='1276'> +8.0698049e+01 </wgt>
<wgt id='1277'> +8.0711708e+01 </wgt>
<wgt id='1278'> +8.0636404e+01 </wgt>
<wgt id='1279'> +8.0712563e+01 </wgt>
<wgt id='1280'> +8.0545185e+01 </wgt>
<wgt id='1281'> +8.0498067e+01 </wgt>
<wgt id='1282'> +8.0567126e+01 </wgt>
<wgt id='1283'> +8.0702378e+01 </wgt>
<wgt id='1284'> +8.0565759e+01 </wgt>
<wgt id='1285'> +8.0460773e+01 </wgt>
<wgt id='1286'> +8.0708816e+01 </wgt>
<wgt id='1287'> +8.0485839e+01 </wgt>
<wgt id='1288'> +8.0725754e+01 </wgt>
<wgt id='1289'> +8.0376136e+01 </wgt>
<wgt id='1290'> +8.0380668e+01 </wgt>
<wgt id='1291'> +8.0514771e+01 </wgt>
<wgt id='1292'> +8.0353498e+01 </wgt>
<wgt id='1293'> +8.0586417e+01 </wgt>
<wgt id='1294'> +8.0670753e+01 </wgt>
<wgt id='1295'> +8.0515419e+01 </wgt>
<wgt id='1296'> +8.0337970e+01 </wgt>
<wgt id='1297'> +8.0597793e+01 </wgt>
<wgt id='1298'> +8.0652245e+01 </wgt>
<wgt id='1299'> +8.0543415e+01 </wgt>
<wgt id='1300'> +8.0524262e+01 </wgt>
<wgt id='1301'> +8.0513535e+01 </wgt>
<wgt id='1302'> +8.0444506e+01 </wgt>
<wgt id='1303'> +8.0460345e+01 </wgt>
<wgt id='1304'> +8.0523431e+01 </wgt>
<wgt id='1305'> +8.0828930e+01 </wgt>
<wgt id='1306'> +8.0570670e+01 </wgt>
<wgt id='1307'> +8.0500962e+01 </wgt>
<wgt id='1308'> +8.0497071e+01 </wgt>
<wgt id='1309'> +8.0466351e+01 </wgt>
<wgt id='1310'> +8.0637548e+01 </wgt>
<wgt id='1311'> +8.0558288e+01 </wgt>
<wgt id='1312'> +8.0515921e+01 </wgt>
<wgt id='1313'> +8.0448819e+01 </wgt>
<wgt id='1314'> +8.0555524e+01 </wgt>
<wgt id='1315'> +8.0669336e+01 </wgt>
<wgt id='1316'> +8.0658386e+01 </wgt>
<wgt id='1317'> +8.0673147e+01 </wgt>
<wgt id='1318'> +8.1057163e+01 </wgt>
<wgt id='1319'> +1.0737240e+02 </wgt>
<wgt id='1320'> +7.6673633e+01 </wgt>
<wgt id='1321'> +7.6597495e+01 </wgt>
<wgt id='1322'> +7.8313312e+01 </wgt>
<wgt id='1323'> +7.6076589e+01 </wgt>
<wgt id='1324'> +7.7073943e+01 </wgt>
<wgt id='1325'> +7.7322142e+01 </wgt>
<wgt id='1326'> +7.6471318e+01 </wgt>
<wgt id='1327'> +7.6820120e+01 </wgt>
<wgt id='1328'> +7.6442993e+01 </wgt>
<wgt id='1329'> +7.5128226e+01 </wgt>
<wgt id='1330'> +7.8085018e+01 </wgt>
<wgt id='1331'> +7.3821395e+01 </wgt>
<wgt id='1332'> +7.8888738e+01 </wgt>
<wgt id='1333'> +7.6061101e+01 </wgt>
<wgt id='1334'> +7.6134804e+01 </wgt>
<wgt id='1335'> +7.8662246e+01 </wgt>
<wgt id='1336'> +7.3957565e+01 </wgt>
<wgt id='1337'> +7.8591358e+01 </wgt>
<wgt id='1338'> +7.4438534e+01 </wgt>
<wgt id='1339'> +7.7014698e+01 </wgt>
<wgt id='1340'> +7.6248479e+01 </wgt>
<wgt id='1341'> +7.6779128e+01 </wgt>
<wgt id='1342'> +7.6393802e+01 </wgt>
<wgt id='1343'> +7.5619833e+01 </wgt>
<wgt id='1344'> +7.7560676e+01 </wgt>
<wgt id='1345'> +7.5085271e+01 </wgt>
<wgt id='1346'> +7.8086608e+01 </wgt>
<wgt id='1347'> +7.7085736e+01 </wgt>
<wgt id='1348'> +7.6087663e+01 </wgt>
<wgt id='1349'> +7.7170811e+01 </wgt>
<wgt id='1350'> +7.6495398e+01 </wgt>
<wgt id='1351'> +7.7441508e+01 </wgt>
<wgt id='1352'> +7.5683877e+01 </wgt>
<wgt id='1353'> +7.6555962e+01 </wgt>
<wgt id='1354'> +7.6960752e+01 </wgt>
<wgt id='1355'> +7.8800661e+01 </wgt>
<wgt id='1356'> +7.4697072e+01 </wgt>
<wgt id='1357'> +7.7107035e+01 </wgt>
<wgt id='1358'> +7.5500795e+01 </wgt>
<wgt id='1359'> +7.4863039e+01 </wgt>
<wgt id='1360'> +7.7336096e+01 </wgt>
<wgt id='1361'> +7.6278839e+01 </wgt>
<wgt id='1362'> +7.7299994e+01 </wgt>
<wgt id='1363'> +7.7418424e+01 </wgt>
<wgt id='1364'> +7.5049912e+01 </wgt>
<wgt id='1365'> +7.6416959e+01 </wgt>
<wgt id='1366'> +7.4852629e+01 </wgt>
<wgt id='1367'> +7.4829381e+01 </wgt>
<wgt id='1368'> +7.6818984e+01 </wgt>
<wgt id='1369'> +7.5707923e+01 </wgt>
<wgt id='1370'> +7.6535325e+01 </wgt>
<wgt id='1371'> +7.5653797e+01 </wgt>
<wgt id='1372'> +7.5016171e+01 </wgt>
<wgt id='1373'> +7.5387653e+01 </wgt>
<wgt id='1374'> +7.6016399e+01 </wgt>
<wgt id='1375'> +7.6655466e+01 </wgt>
<wgt id='1376'> +7.7391903e+01 </wgt>
<wgt id='1377'> +7.5898609e+01 </wgt>
<wgt id='1378'> +7.7329610e+01 </wgt>
<wgt id='1379'> +7.3126985e+01 </wgt>
<wgt id='1380'> +7.2631205e+01 </wgt>
<wgt id='1381'> +7.3589409e+01 </wgt>
<wgt id='1382'> +8.5315684e+01 </wgt>
<wgt id='1383'> +7.9246672e+01 </wgt>
<wgt id='1384'> +7.6326788e+01 </wgt>
<wgt id='1385'> +1.0081917e+02 </wgt>
<wgt id='1386'> +1.0133024e+02 </wgt>
<wgt id='1387'> +1.0026078e+02 </wgt>
<wgt id='1388'> +1.0097913e+02 </wgt>
<wgt id='1389'> +1.0053458e+02 </wgt>
<wgt id='1390'> +1.0115836e+02 </wgt>
<wgt id='1391'> +1.0042774e+02 </wgt>
<wgt id='1392'> +1.0137383e+02 </wgt>
<wgt id='1393'> +1.0044165e+02 </wgt>
<wgt id='1394'> +1.0064313e+02 </wgt>
<wgt id='1395'> +1.0103780e+02 </wgt>
<wgt id='1396'> +1.0005697e+02 </wgt>
<wgt id='1397'> +1.0122062e+02 </wgt>
<wgt id='1398'> +1.0047192e+02 </wgt>
<wgt id='1399'> +1.0108817e+02 </wgt>
<wgt id='1400'> +1.0138736e+02 </wgt>
<wgt id='1401'> +1.0038829e+02 </wgt>
<wgt id='1402'> +9.9286488e+01 </wgt>
<wgt id='1403'> +1.0152866e+02 </wgt>
<wgt id='1404'> +1.0101907e+02 </wgt>
<wgt id='1405'> +1.0074101e+02 </wgt>
<wgt id='1406'> +1.0102434e+02 </wgt>
<wgt id='1407'> +1.0045427e+02 </wgt>
<wgt id='1408'> +1.0006557e+02 </wgt>
<wgt id='1409'> +1.0235404e+02 </wgt>
<wgt id='1410'> +1.0101287e+02 </wgt>
<wgt id='1411'> +1.0029606e+02 </wgt>
<wgt id='1412'> +1.0097715e+02 </wgt>
<wgt id='1413'> +1.0051022e+02 </wgt>
<wgt id='1414'> +1.0036778e+02 </wgt>
<wgt id='1415'> +1.0117801e+02 </wgt>
<wgt id='1416'> +9.9799142e+01 </wgt>
<wgt id='1417'> +1.0118142e+02 </wgt>
<wgt id='1418'> +1.0087377e+02 </wgt>
<wgt id='1419'> +1.0068416e+02 </wgt>
<wgt id='1420'> +1.0028629e+02 </wgt>
<wgt id='1421'> +1.0087403e+02 </wgt>
<wgt id='1422'> +1.0041016e+02 </wgt>
<wgt id='1423'> +1.0121925e+02 </wgt>
<wgt id='1424'> +1.0131036e+02 </wgt>
<wgt id='1425'> +9.9846497e+01 </wgt>
<wgt id='1426'> +1.0177038e+02 </wgt>
<wgt id='1427'> +1.0029919e+02 </wgt>
<wgt id='1428'> +1.0020984e+02 </wgt>
<wgt id='1429'> +1.0010086e+02 </wgt>
<wgt id='1430'> +1.0155317e+02 </wgt>
<wgt id='1431'> +1.0072013e+02 </wgt>
<wgt id='1432'> +1.0102537e+02 </wgt>
<wgt id='1433'> +1.0132506e+02 </wgt>
<wgt id='1434'> +1.0009253e+02 </wgt>
<wgt id='1435'> +1.0025971e+02 </wgt>
<wgt id='1436'> +7.7382553e+01 </wgt>
<wgt id='1437'> +7.7366969e+01 </wgt>
<wgt id='1438'> +7.7499703e+01 </wgt>
<wgt id='1439'> +7.7388565e+01 </wgt>
<wgt id='1440'> +7.7113211e+01 </wgt>
<wgt id='1441'> +7.7912847e+01 </wgt>
<wgt id='1442'> +7.7137060e+01 </wgt>
<wgt id='1443'> +7.7253059e+01 </wgt>
<wgt id='1444'> +7.7434921e+01 </wgt>
<wgt id='1445'> +7.7015093e+01 </wgt>
<wgt id='1446'> +7.7621272e+01 </wgt>
<wgt id='1447'> +7.7272361e+01 </wgt>
<wgt id='1448'> +7.7262916e+01 </wgt>
<wgt id='1449'> +7.7529704e+01 </wgt>
<wgt id='1450'> +7.7448720e+01 </wgt>
<wgt id='1451'> +7.7414740e+01 </wgt>
<wgt id='1452'> +7.7464900e+01 </wgt>
<wgt id='1453'> +7.7329738e+01 </wgt>
<wgt id='1454'> +7.7457990e+01 </wgt>
<wgt id='1455'> +7.7527783e+01 </wgt>
<wgt id='1456'> +7.7972653e+01 </wgt>
<wgt id='1457'> +7.7317555e+01 </wgt>
<wgt id='1458'> +7.7140908e+01 </wgt>
<wgt id='1459'> +7.7604615e+01 </wgt>
<wgt id='1460'> +7.7380882e+01 </wgt>
<wgt id='1461'> +7.6853814e+01 </wgt>
<wgt id='1462'> +7.8452902e+01 </wgt>
<wgt id='1463'> +7.6294521e+01 </wgt>
<wgt id='1464'> +7.7764266e+01 </wgt>
<wgt id='1465'> +7.5238295e+01 </wgt>
<wgt id='1466'> +7.7312182e+01 </wgt>
<wgt id='1467'> +7.7495204e+01 </wgt>
<wgt id='1468'> +7.7207681e+01 </wgt>
<wgt id='1469'> +7.7979311e+01 </wgt>
<wgt id='1470'> +7.7270425e+01 </wgt>
<wgt id='1471'> +7.7203212e+01 </wgt>
<wgt id='1472'> +7.6914313e+01 </wgt>
<wgt id='1473'> +7.8154702e+01 </wgt>
<wgt id='1474'> +7.8463944e+01 </wgt>
<wgt id='1475'> +7.7022432e+01 </wgt>
<wgt id='1476'> +7.8084393e+01 </wgt>
<wgt id='1477'> +7.7123663e+01 </wgt>
<wgt id='1478'> +7.7284541e+01 </wgt>
<wgt id='1479'> +7.6742955e+01 </wgt>
<wgt id='1480'> +7.7269567e+01 </wgt>
<wgt id='1481'> +7.7548780e+01 </wgt>
<wgt id='1482'> +7.6928321e+01 </wgt>
<wgt id='1483'> +7.8042342e+01 </wgt>
<wgt id='1484'> +7.7753580e+01 </wgt>
<wgt id='1485'> +7.7116829e+01 </wgt>
<wgt id='1486'> +7.7627135e+01 </wgt>
<wgt id='1487'> +7.7109794e+01 </wgt>
<wgt id='1488'> +7.7225299e+01 </wgt>
<wgt id='1489'> +7.8120641e+01 </wgt>
<wgt id='1490'> +7.7039426e+01 </wgt>
<wgt id='1491'> +7.5866764e+01 </wgt>
<wgt id='1492'> +7.6852838e+01 </wgt>
<wgt id='1493'> +7.8219833e+01 </wgt>
<wgt id='1494'> +7.6616676e+01 </wgt>
<wgt id='1495'> +7.7319861e+01 </wgt>
<wgt id='1496'> +7.8357254e+01 </wgt>
<wgt id='1497'> +7.7137934e+01 </wgt>
<wgt id='1498'> +7.7509741e+01 </wgt>
<wgt id='1499'> +7.7746973e+01 </wgt>
<wgt id='1500'> +7.7583869e+01 </wgt>
<wgt id='1501'> +7.7898890e+01 </wgt>
<wgt id='1502'> +7.7167624e+01 </wgt>
<wgt id='1503'> +7.7363558e+01 </wgt>
<wgt id='1504'> +7.7268977e+01 </wgt>
<wgt id='1505'> +7.7589962e+01 </wgt>
<wgt id='1506'> +7.7424752e+01 </wgt>
<wgt id='1507'> +7.7342841e+01 </wgt>
<wgt id='1508'> +7.7833049e+01 </wgt>
<wgt id='1509'> +7.7161315e+01 </wgt>
<wgt id='1510'> +7.7653655e+01 </wgt>
<wgt id='1511'> +7.7819363e+01 </wgt>
<wgt id='1512'> +7.7166837e+01 </wgt>
<wgt id='1513'> +7.7091229e+01 </wgt>
<wgt id='1514'> +7.7168388e+01 </wgt>
<wgt id='1515'> +7.7337741e+01 </wgt>
<wgt id='1516'> +7.7429477e+01 </wgt>
<wgt id='1517'> +7.7009025e+01 </wgt>
<wgt id='1518'> +7.7338235e+01 </wgt>
<wgt id='1519'> +7.7316172e+01 </wgt>
<wgt id='1520'> +7.7160017e+01 </wgt>
<wgt id='1521'> +7.7098367e+01 </wgt>
<wgt id='1522'> +7.7363316e+01 </wgt>
<wgt id='1523'> +7.7310810e+01 </wgt>
<wgt id='1524'> +7.7669897e+01 </wgt>
<wgt id='1525'> +7.7120130e+01 </wgt>
<wgt id='1526'> +7.7073946e+01 </wgt>
<wgt id='1527'> +7.7013768e+01 </wgt>
<wgt id='1528'> +7.7527034e+01 </wgt>
<wgt id='1529'> +7.7475793e+01 </wgt>
<wgt id='1530'> +7.7319610e+01 </wgt>
<wgt id='1531'> +7.7321713e+01 </wgt>
<wgt id='1532'> +7.7566927e+01 </wgt>
<wgt id='1533'> +7.7187571e+01 </wgt>
<wgt id='1534'> +7.7329737e+01 </wgt>
<wgt id='1535'> +7.7207148e+01 </wgt>
<wgt id='1536'> +7.7392498e+01 </wgt>
<wgt id='1537'> +7.7221370e+01 </wgt>
<wgt id='1538'> +7.7321234e+01 </wgt>
<wgt id='1539'> +7.7243018e+01 </wgt>
<wgt id='1540'> +7.7416316e+01 </wgt>
<wgt id='1541'> +7.7376563e+01 </wgt>
<wgt id='1542'> +7.7212745e+01 </wgt>
<wgt id='1543'> +7.7471189e+01 </wgt>
<wgt id='1544'> +7.7315891e+01 </wgt>
<wgt id='1545'> +7.7396002e+01 </wgt>
<wgt id='1546'> +7.7360096e+01 </wgt>
<wgt id='1547'> +7.7237521e+01 </wgt>
<wgt id='1548'> +7.7255196e+01 </wgt>
<wgt id='1549'> +7.7322320e+01 </wgt>
<wgt id='1550'> +7.7303771e+01 </wgt>
<wgt id='1551'> +7.7363008e+01 </wgt>
<wgt id='1552'> +7.7373294e+01 </wgt>
<wgt id='1553'> +7.7331461e+01 </wgt>
<wgt id='1554'> +7.7272656e+01 </wgt>
<wgt id='1555'> +7.7332088e+01 </wgt>
<wgt id='1556'> +7.7245100e+01 </wgt>
<wgt id='1557'> +7.7305819e+01 </wgt>
<wgt id='1558'> +7.7295474e+01 </wgt>
<wgt id='1559'> +7.7270501e+01 </wgt>
<wgt id='1560'> +7.7355885e+01 </wgt>
<wgt id='1561'> +7.7339325e+01 </wgt>
<wgt id='1562'> +7.7285521e+01 </wgt>
<wgt id='1563'> +7.7309379e+01 </wgt>
<wgt id='1564'> +7.7338463e+01 </wgt>
<wgt id='1565'> +7.7264837e+01 </wgt>
<wgt id='1566'> +7.7308998e+01 </wgt>
<wgt id='1567'> +7.6489616e+01 </wgt>
<wgt id='1568'> +7.7714351e+01 </wgt>
<wgt id='1569'> +7.4712219e+01 </wgt>
<wgt id='1570'> +7.4997597e+01 </wgt>
<wgt id='1571'> +7.4806403e+01 </wgt>
<wgt id='1572'> +7.4592169e+01 </wgt>
<wgt id='1573'> +7.5048538e+01 </wgt>
<wgt id='1574'> +7.4741853e+01 </wgt>
<wgt id='1575'> +7.4653534e+01 </wgt>
<wgt id='1576'> +7.5211078e+01 </wgt>
<wgt id='1577'> +7.5052420e+01 </wgt>
<wgt id='1578'> +7.4832439e+01 </wgt>
<wgt id='1579'> +7.4478105e+01 </wgt>
<wgt id='1580'> +7.5108553e+01 </wgt>
<wgt id='1581'> +7.4029634e+01 </wgt>
<wgt id='1582'> +7.4328629e+01 </wgt>
<wgt id='1583'> +7.4585002e+01 </wgt>
<wgt id='1584'> +7.5450442e+01 </wgt>
<wgt id='1585'> +7.4357412e+01 </wgt>
<wgt id='1586'> +7.4632886e+01 </wgt>
<wgt id='1587'> +7.5357930e+01 </wgt>
<wgt id='1588'> +7.3727495e+01 </wgt>
<wgt id='1589'> +7.4293614e+01 </wgt>
<wgt id='1590'> +7.5136389e+01 </wgt>
<wgt id='1591'> +7.3924712e+01 </wgt>
<wgt id='1592'> +7.4689515e+01 </wgt>
<wgt id='1593'> +7.5286910e+01 </wgt>
<wgt id='1594'> +7.4872233e+01 </wgt>
<wgt id='1595'> +7.4609919e+01 </wgt>
<wgt id='1596'> +7.4607084e+01 </wgt>
<wgt id='1597'> +7.4502399e+01 </wgt>
<wgt id='1598'> +7.4412153e+01 </wgt>
<wgt id='1599'> +7.4671908e+01 </wgt>
<wgt id='1600'> +7.3949346e+01 </wgt>
<wgt id='1601'> +7.4561255e+01 </wgt>
<wgt id='1602'> +7.3723295e+01 </wgt>
<wgt id='1603'> +7.4097956e+01 </wgt>
<wgt id='1604'> +7.5307009e+01 </wgt>
<wgt id='1605'> +7.4771094e+01 </wgt>
<wgt id='1606'> +7.4621964e+01 </wgt>
<wgt id='1607'> +7.4291385e+01 </wgt>
<wgt id='1608'> +7.5074207e+01 </wgt>
<wgt id='1609'> +7.4247135e+01 </wgt>
<wgt id='1610'> +7.4499492e+01 </wgt>
<wgt id='1611'> +7.4582676e+01 </wgt>
<wgt id='1612'> +7.4580135e+01 </wgt>
<wgt id='1613'> +7.4897281e+01 </wgt>
<wgt id='1614'> +7.4604607e+01 </wgt>
<wgt id='1615'> +7.4663278e+01 </wgt>
<wgt id='1616'> +7.4499668e+01 </wgt>
<wgt id='1617'> +7.4958252e+01 </wgt>
<wgt id='1618'> +7.4873065e+01 </wgt>
<wgt id='1619'> +7.5104578e+01 </wgt>
<wgt id='1620'> +7.4784935e+01 </wgt>
<wgt id='1621'> +7.4599409e+01 </wgt>
<wgt id='1622'> +7.4623549e+01 </wgt>
<wgt id='1623'> +7.4548172e+01 </wgt>
<wgt id='1624'> +7.4780311e+01 </wgt>
<wgt id='1625'> +7.4800910e+01 </wgt>
<wgt id='1626'> +7.4637979e+01 </wgt>
<wgt id='1627'> +7.4520470e+01 </wgt>
<wgt id='1628'> +7.4607694e+01 </wgt>
<wgt id='1629'> +7.4558641e+01 </wgt>
<wgt id='1630'> +7.4685397e+01 </wgt>
<wgt id='1631'> +7.4940149e+01 </wgt>
<wgt id='1632'> +7.5248090e+01 </wgt>
<wgt id='1633'> +7.4768007e+01 </wgt>
<wgt id='1634'> +7.4398234e+01 </wgt>
<wgt id='1635'> +7.4971004e+01 </wgt>
<wgt id='1636'> +7.4730640e+01 </wgt>
<wgt id='1637'> +7.4796835e+01 </wgt>
<wgt id='1638'> +7.4683873e+01 </wgt>
<wgt id='1639'> +7.4648298e+01 </wgt>
<wgt id='1640'> +7.4717122e+01 </wgt>
<wgt id='1641'> +7.4840042e+01 </wgt>
<wgt id='1642'> +7.4542271e+01 </wgt>
<wgt id='1643'> +7.4766255e+01 </wgt>
<wgt id='1644'> +7.4728606e+01 </wgt>
<wgt id='1645'> +7.4631313e+01 </wgt>
<wgt id='1646'> +7.4690797e+01 </wgt>
<wgt id='1647'> +7.4707838e+01 </wgt>
<wgt id='1648'> +7.4695683e+01 </wgt>
<wgt id='1649'> +7.4749328e+01 </wgt>
<wgt id='1650'> +7.4692630e+01 </wgt>
<wgt id='1651'> +7.4780782e+01 </wgt>
<wgt id='1652'> +7.4666404e+01 </wgt>
<wgt id='1653'> +7.4710830e+01 </wgt>
<wgt id='1654'> +7.4702900e+01 </wgt>
<wgt id='1655'> +7.4726010e+01 </wgt>
<wgt id='1656'> +7.4643285e+01 </wgt>
<wgt id='1657'> +7.4744569e+01 </wgt>
<wgt id='1658'> +7.4665652e+01 </wgt>
<wgt id='1659'> +7.4744357e+01 </wgt>
<wgt id='1660'> +7.4751515e+01 </wgt>
<wgt id='1661'> +7.4729226e+01 </wgt>
<wgt id='1662'> +7.4689098e+01 </wgt>
<wgt id='1663'> +7.4704913e+01 </wgt>
<wgt id='1664'> +7.4685755e+01 </wgt>
<wgt id='1665'> +7.4633845e+01 </wgt>
<wgt id='1666'> +7.4698660e+01 </wgt>
<wgt id='1667'> +7.4772658e+01 </wgt>
<wgt id='1668'> +7.4690607e+01 </wgt>
<wgt id='1669'> +7.4653498e+01 </wgt>
<wgt id='1670'> +7.4329165e+01 </wgt>
<wgt id='1671'> +7.5017701e+01 </wgt>
<wgt id='1672'> +7.7309503e+01 </wgt>
<wgt id='1673'> +7.8818032e+01 </wgt>
<wgt id='1674'> +7.6604091e+01 </wgt>
<wgt id='1675'> +7.7367967e+01 </wgt>
<wgt id='1676'> +7.8338017e+01 </wgt>
<wgt id='1677'> +7.8065380e+01 </wgt>
<wgt id='1678'> +7.8352085e+01 </wgt>
<wgt id='1679'> +7.7333510e+01 </wgt>
<wgt id='1680'> +7.7134071e+01 </wgt>
<wgt id='1681'> +7.7358099e+01 </wgt>
<wgt id='1682'> +7.7350796e+01 </wgt>
<wgt id='1683'> +7.7369278e+01 </wgt>
<wgt id='1684'> +7.6548483e+01 </wgt>
<wgt id='1685'> +7.7040643e+01 </wgt>
<wgt id='1686'> +7.7257657e+01 </wgt>
<wgt id='1687'> +7.6816360e+01 </wgt>
<wgt id='1688'> +7.7425775e+01 </wgt>
<wgt id='1689'> +7.6221039e+01 </wgt>
<wgt id='1690'> +7.6993903e+01 </wgt>
<wgt id='1691'> +7.7254815e+01 </wgt>
<wgt id='1692'> +7.8481611e+01 </wgt>
<wgt id='1693'> +7.7260884e+01 </wgt>
<wgt id='1694'> +7.7451453e+01 </wgt>
<wgt id='1695'> +7.7360421e+01 </wgt>
<wgt id='1696'> +7.7946169e+01 </wgt>
<wgt id='1697'> +7.7045136e+01 </wgt>
<wgt id='1698'> +7.7305721e+01 </wgt>
<wgt id='1699'> +7.6598398e+01 </wgt>
<wgt id='1700'> +7.7379494e+01 </wgt>
<wgt id='1701'> +7.7190462e+01 </wgt>
<wgt id='1702'> +7.7227732e+01 </wgt>
<wgt id='1703'> +7.6489616e+01 </wgt>
<wgt id='1704'> +7.7714351e+01 </wgt>
<wgt id='1705'> +7.4709553e+01 </wgt>
<wgt id='1706'> +7.5476189e+01 </wgt>
<wgt id='1707'> +7.5384546e+01 </wgt>
<wgt id='1708'> +7.4765465e+01 </wgt>
<wgt id='1709'> +7.4479997e+01 </wgt>
<wgt id='1710'> +7.4281656e+01 </wgt>
<wgt id='1711'> +7.4664234e+01 </wgt>
<wgt id='1712'> +7.4433971e+01 </wgt>
<wgt id='1713'> +7.5131486e+01 </wgt>
<wgt id='1714'> +7.3570764e+01 </wgt>
<wgt id='1715'> +7.5306546e+01 </wgt>
<wgt id='1716'> +7.6207666e+01 </wgt>
<wgt id='1717'> +7.4769130e+01 </wgt>
<wgt id='1718'> +7.5205534e+01 </wgt>
<wgt id='1719'> +7.4688924e+01 </wgt>
<wgt id='1720'> +7.5282833e+01 </wgt>
<wgt id='1721'> +7.4964834e+01 </wgt>
<wgt id='1722'> +7.4994817e+01 </wgt>
<wgt id='1723'> +7.4804548e+01 </wgt>
<wgt id='1724'> +7.4764713e+01 </wgt>
<wgt id='1725'> +7.4601537e+01 </wgt>
<wgt id='1726'> +7.4592777e+01 </wgt>
<wgt id='1727'> +7.5073010e+01 </wgt>
<wgt id='1728'> +7.4747366e+01 </wgt>
<wgt id='1729'> +7.4383127e+01 </wgt>
<wgt id='1730'> +7.4785176e+01 </wgt>
<wgt id='1731'> +7.4012082e+01 </wgt>
<wgt id='1732'> +7.4662150e+01 </wgt>
<wgt id='1733'> +7.4183312e+01 </wgt>
<wgt id='1734'> +7.4961815e+01 </wgt>
<wgt id='1735'> +7.4646924e+01 </wgt>
<wgt id='1736'> +7.4329165e+01 </wgt>
<wgt id='1737'> +7.5017701e+01 </wgt>
<wgt id='1738'> +6.2530117e+01 </wgt>
<wgt id='1739'> +6.2618836e+01 </wgt>
<wgt id='1740'> +6.2441577e+01 </wgt>
<wgt id='1741'> +6.2481860e+01 </wgt>
<wgt id='1742'> +6.2577659e+01 </wgt>
<wgt id='1743'> +6.2646210e+01 </wgt>
<wgt id='1744'> +6.2414158e+01 </wgt>
<wgt id='1745'> +6.2193724e+01 </wgt>
<wgt id='1746'> +6.2861667e+01 </wgt>
<wgt id='1747'> +6.2861221e+01 </wgt>
<wgt id='1748'> +6.2200338e+01 </wgt>
<wgt id='1749'> +6.2664755e+01 </wgt>
<wgt id='1750'> +6.2387859e+01 </wgt>
<wgt id='1751'> +6.2573096e+01 </wgt>
<wgt id='1752'> +6.2485341e+01 </wgt>
<wgt id='1753'> +6.2480268e+01 </wgt>
<wgt id='1754'> +6.2586248e+01 </wgt>
<wgt id='1755'> +6.2367446e+01 </wgt>
<wgt id='1756'> +6.2644621e+01 </wgt>
<wgt id='1757'> +6.2648127e+01 </wgt>
<wgt id='1758'> +6.2420756e+01 </wgt>
<wgt id='1759'> +6.1752820e+01 </wgt>
<wgt id='1760'> +6.3259851e+01 </wgt>
<wgt id='1761'> +6.4084700e+01 </wgt>
<wgt id='1762'> +6.0868723e+01 </wgt>
<wgt id='1763'> +6.2642185e+01 </wgt>
<wgt id='1764'> +6.2495496e+01 </wgt>
<wgt id='1765'> +6.2552076e+01 </wgt>
<wgt id='1766'> +6.2554047e+01 </wgt>
<wgt id='1767'> +6.2530117e+01 </wgt>
<wgt id='1768'> +6.6649026e+01 </wgt>
<wgt id='1769'> +5.8063481e+01 </wgt>
<wgt id='1770'> +7.5479643e+01 </wgt>
<wgt id='1771'> +7.3488664e+01 </wgt>
<wgt id='1772'> +6.2222477e+01 </wgt>
<wgt id='1773'> +6.2710928e+01 </wgt>
<wgt id='1774'> +6.2514454e+01 </wgt>
<wgt id='1775'> +6.2464083e+01 </wgt>
<wgt id='1776'> +6.2093207e+01 </wgt>
<wgt id='1777'> +6.2852225e+01 </wgt>
<wgt id='1778'> +6.1991294e+01 </wgt>
<wgt id='1779'> +6.3199816e+01 </wgt>
<wgt id='1780'> +6.0073061e+01 </wgt>
<wgt id='1781'> +5.7912517e+01 </wgt>
<wgt id='1782'> +5.7970293e+01 </wgt>
<wgt id='1783'> +5.7828011e+01 </wgt>
<wgt id='1784'> +5.7843274e+01 </wgt>
<wgt id='1785'> +5.7954449e+01 </wgt>
<wgt id='1786'> +5.8000732e+01 </wgt>
<wgt id='1787'> +5.7797554e+01 </wgt>
<wgt id='1788'> +5.7581268e+01 </wgt>
<wgt id='1789'> +5.8210237e+01 </wgt>
<wgt id='1790'> +5.8117968e+01 </wgt>
<wgt id='1791'> +5.7679194e+01 </wgt>
<wgt id='1792'> +5.7983029e+01 </wgt>
<wgt id='1793'> +5.7815948e+01 </wgt>
<wgt id='1794'> +5.7792918e+01 </wgt>
<wgt id='1795'> +5.8006801e+01 </wgt>
<wgt id='1796'> +5.7896340e+01 </wgt>
<wgt id='1797'> +5.7931208e+01 </wgt>
<wgt id='1798'> +5.7918701e+01 </wgt>
<wgt id='1799'> +5.7868627e+01 </wgt>
<wgt id='1800'> +5.7806135e+01 </wgt>
<wgt id='1801'> +5.7989633e+01 </wgt>
<wgt id='1802'> +5.8242814e+01 </wgt>
<wgt id='1803'> +5.7479367e+01 </wgt>
<wgt id='1804'> +5.9230135e+01 </wgt>
<wgt id='1805'> +5.6643672e+01 </wgt>
<wgt id='1806'> +6.0638103e+01 </wgt>
<wgt id='1807'> +5.5395336e+01 </wgt>
<wgt id='1808'> +5.9867061e+01 </wgt>
<wgt id='1809'> +5.6161834e+01 </wgt>
<wgt id='1810'> +5.7912633e+01 </wgt>
<wgt id='1811'> +6.2118789e+01 </wgt>
<wgt id='1812'> +5.3814428e+01 </wgt>
<wgt id='1813'> +6.9569101e+01 </wgt>
<wgt id='1814'> +6.5983002e+01 </wgt>
<wgt id='1815'> +6.1260160e+01 </wgt>
<wgt id='1816'> +5.8586869e+01 </wgt>
<wgt id='1817'> +5.7800333e+01 </wgt>
<wgt id='1818'> +5.7268565e+01 </wgt>
<wgt id='1819'> +5.8936454e+01 </wgt>
<wgt id='1820'> +6.2085198e+01 </wgt>
<wgt id='1821'> +5.9879726e+01 </wgt>
<wgt id='1822'> +5.5664267e+01 </wgt>
<wgt id='1823'> +5.7401160e+01 </wgt>
<wgt id='1824'> +7.5875376e+01 </wgt>
<wgt id='1825'> +7.5837508e+01 </wgt>
<wgt id='1826'> +7.5799201e+01 </wgt>
<wgt id='1827'> +7.5760689e+01 </wgt>
<wgt id='1828'> +7.5722458e+01 </wgt>
<wgt id='1829'> +7.5684180e+01 </wgt>
<wgt id='1830'> +7.5646000e+01 </wgt>
<wgt id='1831'> +7.5607881e+01 </wgt>
<wgt id='1832'> +7.5569755e+01 </wgt>
<wgt id='1833'> +7.5531485e+01 </wgt>
<wgt id='1834'> +7.5493309e+01 </wgt>
<wgt id='1835'> +7.5455130e+01 </wgt>
<wgt id='1836'> +7.5417012e+01 </wgt>
<wgt id='1837'> +7.5378870e+01 </wgt>
<wgt id='1838'> +7.5340649e+01 </wgt>
<wgt id='1839'> +7.5302520e+01 </wgt>
<wgt id='1840'> +7.5264288e+01 </wgt>
<wgt id='1841'> +7.5226164e+01 </wgt>
<wgt id='1842'> +7.5188196e+01 </wgt>
<wgt id='1843'> +7.5149964e+01 </wgt>
<wgt id='1844'> +7.5111886e+01 </wgt>
<wgt id='1845'> +7.5073715e+01 </wgt>
<wgt id='1846'> +7.5035638e+01 </wgt>
<wgt id='1847'> +7.4997443e+01 </wgt>
<wgt id='1848'> +7.4959491e+01 </wgt>
<wgt id='1849'> +7.4921385e+01 </wgt>
<wgt id='1850'> +7.4883232e+01 </wgt>
<wgt id='1851'> +7.4845181e+01 </wgt>
<wgt id='1852'> +7.4807053e+01 </wgt>
<wgt id='1853'> +7.4769144e+01 </wgt>
<wgt id='1854'> +7.4731007e+01 </wgt>
<wgt id='1855'> +7.4125031e+01 </wgt>
<wgt id='1856'> +7.4395061e+01 </wgt>
<wgt id='1857'> +7.4216501e+01 </wgt>
<wgt id='1858'> +7.4006348e+01 </wgt>
<wgt id='1859'> +7.4456318e+01 </wgt>
<wgt id='1860'> +7.4154477e+01 </wgt>
<wgt id='1861'> +7.4076679e+01 </wgt>
<wgt id='1862'> +7.4628916e+01 </wgt>
<wgt id='1863'> +7.4463848e+01 </wgt>
<wgt id='1864'> +7.4244731e+01 </wgt>
<wgt id='1865'> +7.3891017e+01 </wgt>
<wgt id='1866'> +7.4531682e+01 </wgt>
<wgt id='1867'> +7.3452725e+01 </wgt>
<wgt id='1868'> +7.3748102e+01 </wgt>
<wgt id='1869'> +7.3996559e+01 </wgt>
<wgt id='1870'> +7.4840442e+01 </wgt>
<wgt id='1871'> +7.3785657e+01 </wgt>
<wgt id='1872'> +7.4040758e+01 </wgt>
<wgt id='1873'> +7.4764632e+01 </wgt>
<wgt id='1874'> +7.3156699e+01 </wgt>
<wgt id='1875'> +7.3719357e+01 </wgt>
<wgt id='1876'> +7.4539200e+01 </wgt>
<wgt id='1877'> +7.3342769e+01 </wgt>
<wgt id='1878'> +7.4104069e+01 </wgt>
<wgt id='1879'> +7.4691550e+01 </wgt>
<wgt id='1880'> +7.4274136e+01 </wgt>
<wgt id='1881'> +7.4014044e+01 </wgt>
<wgt id='1882'> +7.4032728e+01 </wgt>
<wgt id='1883'> +7.3920565e+01 </wgt>
<wgt id='1884'> +7.3822123e+01 </wgt>
<wgt id='1885'> +7.4081367e+01 </wgt>
<wgt id='1886'> +7.3376730e+01 </wgt>
<wgt id='1887'> +7.3971922e+01 </wgt>
<wgt id='1888'> +7.3138811e+01 </wgt>
<wgt id='1889'> +7.3513302e+01 </wgt>
<wgt id='1890'> +7.4713530e+01 </wgt>
<wgt id='1891'> +7.4182184e+01 </wgt>
<wgt id='1892'> +7.4034823e+01 </wgt>
<wgt id='1893'> +7.3703232e+01 </wgt>
<wgt id='1894'> +7.4478537e+01 </wgt>
<wgt id='1895'> +7.3659604e+01 </wgt>
<wgt id='1896'> +7.3912138e+01 </wgt>
<wgt id='1897'> +7.3993014e+01 </wgt>
<wgt id='1898'> +7.3999705e+01 </wgt>
<wgt id='1899'> +7.4310631e+01 </wgt>
<wgt id='1900'> +7.4016933e+01 </wgt>
<wgt id='1901'> +7.4078363e+01 </wgt>
<wgt id='1902'> +7.3912726e+01 </wgt>
<wgt id='1903'> +7.4373088e+01 </wgt>
<wgt id='1904'> +7.4284590e+01 </wgt>
<wgt id='1905'> +7.4519306e+01 </wgt>
<wgt id='1906'> +7.4197197e+01 </wgt>
<wgt id='1907'> +7.4012494e+01 </wgt>
<wgt id='1908'> +7.4037886e+01 </wgt>
<wgt id='1909'> +7.3963998e+01 </wgt>
<wgt id='1910'> +7.4194863e+01 </wgt>
<wgt id='1911'> +7.4209952e+01 </wgt>
<wgt id='1912'> +7.4051093e+01 </wgt>
<wgt id='1913'> +7.3936662e+01 </wgt>
<wgt id='1914'> +7.4024178e+01 </wgt>
<wgt id='1915'> +7.3974990e+01 </wgt>
<wgt id='1916'> +7.4099164e+01 </wgt>
<wgt id='1917'> +7.4348560e+01 </wgt>
<wgt id='1918'> +7.4653265e+01 </wgt>
<wgt id='1919'> +7.4182386e+01 </wgt>
<wgt id='1920'> +7.3812878e+01 </wgt>
<wgt id='1921'> +7.4380657e+01 </wgt>
<wgt id='1922'> +7.4143524e+01 </wgt>
<wgt id='1923'> +7.4210966e+01 </wgt>
<wgt id='1924'> +7.4096471e+01 </wgt>
<wgt id='1925'> +7.4059594e+01 </wgt>
<wgt id='1926'> +7.4131813e+01 </wgt>
<wgt id='1927'> +7.4249487e+01 </wgt>
<wgt id='1928'> +7.3956684e+01 </wgt>
<wgt id='1929'> +7.4180317e+01 </wgt>
<wgt id='1930'> +7.4141629e+01 </wgt>
<wgt id='1931'> +7.4048233e+01 </wgt>
<wgt id='1932'> +7.4105011e+01 </wgt>
<wgt id='1933'> +7.4120951e+01 </wgt>
<wgt id='1934'> +7.4108654e+01 </wgt>
<wgt id='1935'> +7.4160647e+01 </wgt>
<wgt id='1936'> +7.4106957e+01 </wgt>
<wgt id='1937'> +7.4194508e+01 </wgt>
<wgt id='1938'> +7.4083355e+01 </wgt>
<wgt id='1939'> +7.4122553e+01 </wgt>
<wgt id='1940'> +7.4114641e+01 </wgt>
<wgt id='1941'> +7.4139939e+01 </wgt>
<wgt id='1942'> +7.4055856e+01 </wgt>
<wgt id='1943'> +7.4154222e+01 </wgt>
<wgt id='1944'> +7.4077093e+01 </wgt>
<wgt id='1945'> +7.4155574e+01 </wgt>
<wgt id='1946'> +7.4159853e+01 </wgt>
<wgt id='1947'> +7.4138961e+01 </wgt>
<wgt id='1948'> +7.4102942e+01 </wgt>
<wgt id='1949'> +7.4118002e+01 </wgt>
<wgt id='1950'> +7.4098915e+01 </wgt>
<wgt id='1951'> +7.4049916e+01 </wgt>
<wgt id='1952'> +7.4112668e+01 </wgt>
<wgt id='1953'> +7.4184515e+01 </wgt>
<wgt id='1954'> +7.4103255e+01 </wgt>
<wgt id='1955'> +7.4067272e+01 </wgt>
<wgt id='1956'> +7.4124507e+01 </wgt>
<wgt id='1957'> +7.4127880e+01 </wgt>
<wgt id='1958'> +7.4125581e+01 </wgt>
<wgt id='1959'> +7.4125671e+01 </wgt>
<wgt id='1960'> +7.4126635e+01 </wgt>
<wgt id='1961'> +7.4125262e+01 </wgt>
<wgt id='1962'> +7.4128490e+01 </wgt>
</rwgt>
</event>
<event npLO=" -1 " npNLO=" 0 ">
 6      0 +1.5146096e+02 4.49243490e+01 7.54677110e-03 1.16404320e-01
        2 -1    0    0  501    0 +0.0000000000e+00 +0.0000000000e+00 +3.8584412000e+01 3.8584412000e+01 0.0000000000e+00 0.0000e+00 9.0000e+00
       -2 -1    0    0    0  501 +0.0000000000e+00 +0.0000000000e+00 -5.3845529000e+01 5.3845529000e+01 0.0000000000e+00 0.0000e+00 9.0000e+00
       23  2    1    2    0    0 +0.0000000000e+00 +7.1054274000e-15 -1.5261117000e+01 9.2429941000e+01 9.1161354000e+01 0.0000e+00 0.0000e+00
       13  1    3    3    0    0 +1.8423417000e+01 +4.0961526000e+01 -3.6487989000e+00 4.5061987000e+01 0.0000000000e+00 0.0000e+00 9.0000e+00
      -13  1    3    3    0    0 -1.1566164000e+01 -2.4084677000e+01 -2.0563603000e+00 2.6796949000e+01 0.0000000000e+00 0.0000e+00 9.0000e+00
       22  1    3    3    0    0 -6.8572529000e+00 -1.6876849000e+01 -9.5559576000e+00 2.0571006000e+01 0.0000000000e+00 0.0000e+00 9.0000e+00
#aMCatNLO 1  0  0  2  1 0.52866089E+02 0.00000000E+00 -9  6  0 0.00000000E+00 0.00000000E+00 0.00000000E+00 0.00000000E+00 0.00000000E+00
<rwgt>
<wgt id='1001'> +1.5146000e+02 </wgt>
<wgt id='1002'> +1.5146000e+02 </wgt>
<wgt id='1003'> +1.4147000e+02 </wgt>
<wgt id='1004'> +1.5395000e+02 </wgt>
<wgt id='1005'> +1.6326000e+02 </wgt>
<wgt id='1006'> +1.5747000e+02 </wgt>
<wgt id='1007'> +1.4343000e+02 </wgt>
<wgt id='1008'> +1.5284000e+02 </wgt>
<wgt id='1009'> +1.5267000e+02 </wgt>
<wgt id='1010'> +1.4639000e+02 </wgt>
<wgt id='1011'> +1.5170000e+02 </wgt>
<wgt id='1012'> +1.4124000e+02 </wgt>
<wgt id='1013'> +1.4325000e+02 </wgt>
<wgt id='1014'> +1.5281000e+02 </wgt>
<wgt id='1015'> +1.5818000e+02 </wgt>
<wgt id='1016'> +1.5194000e+02 </wgt>
<wgt id='1017'> +1.4986000e+02 </wgt>
<wgt id='1018'> +1.4958000e+02 </wgt>
<wgt id='1019'> +1.4888000e+02 </wgt>
<wgt id='1020'> +1.4563000e+02 </wgt>
<wgt id='1021'> +1.5070000e+02 </wgt>
<wgt id='1022'> +1.5416000e+02 </wgt>
<wgt id='1023'> +1.5829000e+02 </wgt>
<wgt id='1024'> +1.4716000e+02 </wgt>
<wgt id='1025'> +1.5696000e+02 </wgt>
<wgt id='1026'> +1.6170000e+02 </wgt>
<wgt id='1027'> +1.5456000e+02 </wgt>
<wgt id='1028'> +1.5058000e+02 </wgt>
<wgt id='1029'> +1.5301000e+02 </wgt>
<wgt id='1030'> +1.5163000e+02 </wgt>
<wgt id='1031'> +1.5452000e+02 </wgt>
<wgt id='1032'> +1.5391000e+02 </wgt>
<wgt id='1033'> +1.5889000e+02 </wgt>
<wgt id='1034'> +1.4275000e+02 </wgt>
<wgt id='1035'> +1.5086000e+02 </wgt>
<wgt id='1036'> +1.5298000e+02 </wgt>
<wgt id='1037'> +1.5776000e+02 </wgt>
<wgt id='1038'> +1.5344000e+02 </wgt>
<wgt id='1039'> +1.5015000e+02 </wgt>
<wgt id='1040'> +1.3693000e+02 </wgt>
<wgt id='1041'> +1.5331000e+02 </wgt>
<wgt id='1042'> +1.5397000e+02 </wgt>
<wgt id='1043'> +1.5327000e+02 </wgt>
<wgt id='1044'> +1.5386000e+02 </wgt>
<wgt id='1045'> +1.5366000e+02 </wgt>
<wgt id='1046'> +1.4810000e+02 </wgt>
<wgt id='1047'> +1.5389000e+02 </wgt>
<wgt id='1048'> +1.5383000e+02 </wgt>
<wgt id='1049'> +1.4351000e+02 </wgt>
<wgt id='1050'> +1.5087000e+02 </wgt>
<wgt id='1051'> +1.5332000e+02 </wgt>
<wgt id='1052'> +1.5884000e+02 </wgt>
<wgt id='1053'> +1.4994000e+02 </wgt>
<wgt id='1054'> +1.5289000e+02 </wgt>
<wgt id='1055'> +1.4702000e+02 </wgt>
<wgt id='1056'> +1.5433000e+02 </wgt>
<wgt id='1057'> +1.5425000e+02 </wgt>
<wgt id='1058'> +1.4939000e+02 </wgt>
<wgt id='1059'> +1.5642000e+02 </wgt>
<wgt id='1060'> +1.5615000e+02 </wgt>
<wgt id='1061'> +1.5580000e+02 </wgt>
<wgt id='1062'> +1.5086000e+02 </wgt>
<wgt id='1063'> +1.5207000e+02 </wgt>
<wgt id='1064'> +1.5356000e+02 </wgt>
<wgt id='1065'> +1.5140000e+02 </wgt>
<wgt id='1066'> +1.3794000e+02 </wgt>
<wgt id='1067'> +1.5390000e+02 </wgt>
<wgt id='1068'> +1.5520000e+02 </wgt>
<wgt id='1069'> +1.4266000e+02 </wgt>
<wgt id='1070'> +1.5263000e+02 </wgt>
<wgt id='1071'> +1.4436000e+02 </wgt>
<wgt id='1072'> +1.5039000e+02 </wgt>
<wgt id='1073'> +1.5114000e+02 </wgt>
<wgt id='1074'> +1.4597000e+02 </wgt>
<wgt id='1075'> +1.3245000e+02 </wgt>
<wgt id='1076'> +1.6269000e+02 </wgt>
<wgt id='1077'> +1.5311000e+02 </wgt>
<wgt id='1078'> +1.4495000e+02 </wgt>
<wgt id='1079'> +1.5218000e+02 </wgt>
<wgt id='1080'> +1.4887000e+02 </wgt>
<wgt id='1081'> +1.4563000e+02 </wgt>
<wgt id='1082'> +1.5461000e+02 </wgt>
<wgt id='1083'> +1.5467000e+02 </wgt>
<wgt id='1084'> +1.5625000e+02 </wgt>
<wgt id='1085'> +1.5027000e+02 </wgt>
<wgt id='1086'> +1.5497000e+02 </wgt>
<wgt id='1087'> +1.5300000e+02 </wgt>
<wgt id='1088'> +1.5084000e+02 </wgt>
<wgt id='1089'> +1.5198000e+02 </wgt>
<wgt id='1090'> +1.5515000e+02 </wgt>
<wgt id='1091'> +1.4970000e+02 </wgt>
<wgt id='1092'> +1.5550000e+02 </wgt>
<wgt id='1093'> +1.5095000e+02 </wgt>
<wgt id='1094'> +1.4929000e+02 </wgt>
<wgt id='1095'> +1.5212000e+02 </wgt>
<wgt id='1096'> +1.5007000e+02 </wgt>
<wgt id='1097'> +1.5243000e+02 </wgt>
<wgt id='1098'> +1.4769000e+02 </wgt>
<wgt id='1099'> +1.5188000e+02 </wgt>
<wgt id='1100'> +1.5640000e+02 </wgt>
<wgt id='1101'> +1.5542000e+02 </wgt>
<wgt id='1102'> +1.5227000e+02 </wgt>
<wgt id='1103'> +1.5171000e+02 </wgt>
<wgt id='1104'> +1.5143000e+02 </wgt>
<wgt id='1105'> +1.5146096e+02 </wgt>
<wgt id='1106'> +7.9638952e+01 </wgt>
<wgt id='1107'> +7.0889480e+01 </wgt>
<wgt id='1108'> +4.2227162e+01 </wgt>
<wgt id='1109'> +5.0572225e+01 </wgt>
<wgt id='1110'> +3.1891039e+01 </wgt>
<wgt id='1111'> +1.0220906e+02 </wgt>
<wgt id='1112'> +1.0223365e+02 </wgt>
<wgt id='1113'> +1.0217859e+02 </wgt>
<wgt id='1114'> +8.6035994e+01 </wgt>
<wgt id='1115'> +9.3832076e+01 </wgt>
<wgt id='1116'> +8.4901026e+01 </wgt>
<wgt id='1117'> +8.2520027e+01 </wgt>
<wgt id='1118'> +8.3835273e+01 </wgt>
<wgt id='1119'> +8.3638670e+01 </wgt>
<wgt id='1120'> +9.1589804e+01 </wgt>
<wgt id='1121'> +8.5974805e+01 </wgt>
<wgt id='1122'> +8.2645445e+01 </wgt>
<wgt id='1123'> +8.1392327e+01 </wgt>
<wgt id='1124'> +8.4206537e+01 </wgt>
<wgt id='1125'> +8.7950233e+01 </wgt>
<wgt id='1126'> +8.1786858e+01 </wgt>
<wgt id='1127'> +8.5047050e+01 </wgt>
<wgt id='1128'> +8.8816565e+01 </wgt>
<wgt id='1129'> +8.5499463e+01 </wgt>
<wgt id='1130'> +8.5902733e+01 </wgt>
<wgt id='1131'> +8.7064659e+01 </wgt>
<wgt id='1132'> +8.3382684e+01 </wgt>
<wgt id='1133'> +8.6476922e+01 </wgt>
<wgt id='1134'> +8.1735796e+01 </wgt>
<wgt id='1135'> +8.2975384e+01 </wgt>
<wgt id='1136'> +8.7638263e+01 </wgt>
<wgt id='1137'> +8.7318336e+01 </wgt>
<wgt id='1138'> +8.1725676e+01 </wgt>
<wgt id='1139'> +8.2765947e+01 </wgt>
<wgt id='1140'> +8.9833480e+01 </wgt>
<wgt id='1141'> +8.7422528e+01 </wgt>
<wgt id='1142'> +8.5599583e+01 </wgt>
<wgt id='1143'> +8.6716999e+01 </wgt>
<wgt id='1144'> +8.8026999e+01 </wgt>
<wgt id='1145'> +9.0393331e+01 </wgt>
<wgt id='1146'> +8.4342881e+01 </wgt>
<wgt id='1147'> +8.7607245e+01 </wgt>
<wgt id='1148'> +8.2056869e+01 </wgt>
<wgt id='1149'> +8.7860347e+01 </wgt>
<wgt id='1150'> +8.5431196e+01 </wgt>
<wgt id='1151'> +8.4805210e+01 </wgt>
<wgt id='1152'> +8.5091758e+01 </wgt>
<wgt id='1153'> +8.7329835e+01 </wgt>
<wgt id='1154'> +8.9204992e+01 </wgt>
<wgt id='1155'> +8.7339994e+01 </wgt>
<wgt id='1156'> +8.7953299e+01 </wgt>
<wgt id='1157'> +8.8257439e+01 </wgt>
<wgt id='1158'> +8.9597116e+01 </wgt>
<wgt id='1159'> +8.8571511e+01 </wgt>
<wgt id='1160'> +8.9006839e+01 </wgt>
<wgt id='1161'> +8.8335838e+01 </wgt>
<wgt id='1162'> +8.7250348e+01 </wgt>
<wgt id='1163'> +8.8831403e+01 </wgt>
<wgt id='1164'> +8.5877756e+01 </wgt>
<wgt id='1165'> +8.4559959e+01 </wgt>
<wgt id='1166'> +8.3613103e+01 </wgt>
<wgt id='1167'> +8.6930711e+01 </wgt>
<wgt id='1168'> +8.5755989e+01 </wgt>
<wgt id='1169'> +8.8309848e+01 </wgt>
<wgt id='1170'> +8.4666389e+01 </wgt>
<wgt id='1171'> +8.6370750e+01 </wgt>
<wgt id='1172'> +8.3757821e+01 </wgt>
<wgt id='1173'> +8.7221148e+01 </wgt>
<wgt id='1174'> +8.9491109e+01 </wgt>
<wgt id='1175'> +8.6364952e+01 </wgt>
<wgt id='1176'> +8.4254002e+01 </wgt>
<wgt id='1177'> +8.7659195e+01 </wgt>
<wgt id='1178'> +8.4094933e+01 </wgt>
<wgt id='1179'> +8.7878553e+01 </wgt>
<wgt id='1180'> +9.3432595e+01 </wgt>
<wgt id='1181'> +8.9023711e+01 </wgt>
<wgt id='1182'> +8.8413513e+01 </wgt>
<wgt id='1183'> +8.6391268e+01 </wgt>
<wgt id='1184'> +8.4605754e+01 </wgt>
<wgt id='1185'> +8.3508867e+01 </wgt>
<wgt id='1186'> +8.9126528e+01 </wgt>
<wgt id='1187'> +8.0240713e+01 </wgt>
<wgt id='1188'> +8.2471304e+01 </wgt>
<wgt id='1189'> +8.5590374e+01 </wgt>
<wgt id='1190'> +9.2501594e+01 </wgt>
<wgt id='1191'> +8.1071005e+01 </wgt>
<wgt id='1192'> +8.5305023e+01 </wgt>
<wgt id='1193'> +8.5787715e+01 </wgt>
<wgt id='1194'> +9.1080832e+01 </wgt>
<wgt id='1195'> +8.4716139e+01 </wgt>
<wgt id='1196'> +8.5902733e+01 </wgt>
<wgt id='1197'> +8.9416733e+01 </wgt>
<wgt id='1198'> +8.3782715e+01 </wgt>
<wgt id='1199'> +8.5125757e+01 </wgt>
<wgt id='1200'> +8.8821301e+01 </wgt>
<wgt id='1201'> +7.8818992e+01 </wgt>
<wgt id='1202'> +8.9098277e+01 </wgt>
<wgt id='1203'> +8.1014847e+01 </wgt>
<wgt id='1204'> +8.5421704e+01 </wgt>
<wgt id='1205'> +8.3273959e+01 </wgt>
<wgt id='1206'> +8.3538716e+01 </wgt>
<wgt id='1207'> +8.3894437e+01 </wgt>
<wgt id='1208'> +8.6099023e+01 </wgt>
<wgt id='1209'> +8.2252879e+01 </wgt>
<wgt id='1210'> +8.8059430e+01 </wgt>
<wgt id='1211'> +9.0266957e+01 </wgt>
<wgt id='1212'> +8.5956886e+01 </wgt>
<wgt id='1213'> +8.3545712e+01 </wgt>
<wgt id='1214'> +8.3332288e+01 </wgt>
<wgt id='1215'> +8.1027721e+01 </wgt>
<wgt id='1216'> +8.4546062e+01 </wgt>
<wgt id='1217'> +8.4370499e+01 </wgt>
<wgt id='1218'> +8.4757390e+01 </wgt>
<wgt id='1219'> +8.4506489e+01 </wgt>
<wgt id='1220'> +8.5191610e+01 </wgt>
<wgt id='1221'> +8.4561737e+01 </wgt>
<wgt id='1222'> +8.4172388e+01 </wgt>
<wgt id='1223'> +8.4672464e+01 </wgt>
<wgt id='1224'> +8.4154094e+01 </wgt>
<wgt id='1225'> +8.4825188e+01 </wgt>
<wgt id='1226'> +8.3428122e+01 </wgt>
<wgt id='1227'> +8.4426517e+01 </wgt>
<wgt id='1228'> +8.4866087e+01 </wgt>
<wgt id='1229'> +8.4666309e+01 </wgt>
<wgt id='1230'> +8.5243498e+01 </wgt>
<wgt id='1231'> +8.3553583e+01 </wgt>
<wgt id='1232'> +8.4972255e+01 </wgt>
<wgt id='1233'> +8.4320941e+01 </wgt>
<wgt id='1234'> +8.4964254e+01 </wgt>
<wgt id='1235'> +8.4468940e+01 </wgt>
<wgt id='1236'> +8.3713643e+01 </wgt>
<wgt id='1237'> +8.5492568e+01 </wgt>
<wgt id='1238'> +8.4770721e+01 </wgt>
<wgt id='1239'> +8.4792583e+01 </wgt>
<wgt id='1240'> +8.4737748e+01 </wgt>
<wgt id='1241'> +8.3708422e+01 </wgt>
<wgt id='1242'> +8.4361836e+01 </wgt>
<wgt id='1243'> +8.4979483e+01 </wgt>
<wgt id='1244'> +8.4475791e+01 </wgt>
<wgt id='1245'> +8.5220323e+01 </wgt>
<wgt id='1246'> +8.4139702e+01 </wgt>
<wgt id='1247'> +8.4634690e+01 </wgt>
<wgt id='1248'> +8.4086653e+01 </wgt>
<wgt id='1249'> +8.5021132e+01 </wgt>
<wgt id='1250'> +8.5004897e+01 </wgt>
<wgt id='1251'> +8.4600560e+01 </wgt>
<wgt id='1252'> +8.4703625e+01 </wgt>
<wgt id='1253'> +8.4389041e+01 </wgt>
<wgt id='1254'> +8.4711631e+01 </wgt>
<wgt id='1255'> +8.4307994e+01 </wgt>
<wgt id='1256'> +8.4610301e+01 </wgt>
<wgt id='1257'> +8.4175072e+01 </wgt>
<wgt id='1258'> +8.4657650e+01 </wgt>
<wgt id='1259'> +8.4197514e+01 </wgt>
<wgt id='1260'> +8.4514324e+01 </wgt>
<wgt id='1261'> +8.4816311e+01 </wgt>
<wgt id='1262'> +8.4738471e+01 </wgt>
<wgt id='1263'> +8.4090624e+01 </wgt>
<wgt id='1264'> +8.4166576e+01 </wgt>
<wgt id='1265'> +8.4881486e+01 </wgt>
<wgt id='1266'> +8.4545777e+01 </wgt>
<wgt id='1267'> +8.4583306e+01 </wgt>
<wgt id='1268'> +8.4443395e+01 </wgt>
<wgt id='1269'> +8.4471717e+01 </wgt>
<wgt id='1270'> +8.4238219e+01 </wgt>
<wgt id='1271'> +8.4489073e+01 </wgt>
<wgt id='1272'> +8.4575620e+01 </wgt>
<wgt id='1273'> +8.4587190e+01 </wgt>
<wgt id='1274'> +8.4415247e+01 </wgt>
<wgt id='1275'> +8.4412593e+01 </wgt>
<wgt id='1276'> +8.4611786e+01 </wgt>
<wgt id='1277'> +8.4636291e+01 </wgt>
<wgt id='1278'> +8.4491288e+01 </wgt>
<wgt id='1279'> +8.4543367e+01 </wgt>
<wgt id='1280'> +8.4588005e+01 </wgt>
<wgt id='1281'> +8.4463691e+01 </wgt>
<wgt id='1282'> +8.4666538e+01 </wgt>
<wgt id='1283'> +8.4541024e+01 </wgt>
<wgt id='1284'> +8.4594171e+01 </wgt>
<wgt id='1285'> +8.4624159e+01 </wgt>
<wgt id='1286'> +8.4606247e+01 </wgt>
<wgt id='1287'> +8.4616288e+01 </wgt>
<wgt id='1288'> +8.4432795e+01 </wgt>
<wgt id='1289'> +8.4751285e+01 </wgt>
<wgt id='1290'> +8.4527554e+01 </wgt>
<wgt id='1291'> +8.4546875e+01 </wgt>
<wgt id='1292'> +8.4612569e+01 </wgt>
<wgt id='1293'> +8.4565357e+01 </wgt>
<wgt id='1294'> +8.4614937e+01 </wgt>
<wgt id='1295'> +8.4468565e+01 </wgt>
<wgt id='1296'> +8.4634127e+01 </wgt>
<wgt id='1297'> +8.4648969e+01 </wgt>
<wgt id='1298'> +8.4530934e+01 </wgt>
<wgt id='1299'> +8.4510156e+01 </wgt>
<wgt id='1300'> +8.4639681e+01 </wgt>
<wgt id='1301'> +8.4610132e+01 </wgt>
<wgt id='1302'> +8.4601743e+01 </wgt>
<wgt id='1303'> +8.4551842e+01 </wgt>
<wgt id='1304'> +8.4568023e+01 </wgt>
<wgt id='1305'> +8.4646423e+01 </wgt>
<wgt id='1306'> +8.4478138e+01 </wgt>
<wgt id='1307'> +8.4591105e+01 </wgt>
<wgt id='1308'> +8.4586294e+01 </wgt>
<wgt id='1309'> +8.4526368e+01 </wgt>
<wgt id='1310'> +8.4558729e+01 </wgt>
<wgt id='1311'> +8.4550339e+01 </wgt>
<wgt id='1312'> +8.4608079e+01 </wgt>
<wgt id='1313'> +8.4574610e+01 </wgt>
<wgt id='1314'> +8.4489593e+01 </wgt>
<wgt id='1315'> +8.4531106e+01 </wgt>
<wgt id='1316'> +8.4588140e+01 </wgt>
<wgt id='1317'> +8.4912742e+01 </wgt>
<wgt id='1318'> +8.4445732e+01 </wgt>
<wgt id='1319'> +9.6452208e+01 </wgt>
<wgt id='1320'> +8.0053052e+01 </wgt>
<wgt id='1321'> +8.0238338e+01 </wgt>
<wgt id='1322'> +8.1097627e+01 </wgt>
<wgt id='1323'> +8.0731361e+01 </wgt>
<wgt id='1324'> +8.0788569e+01 </wgt>
<wgt id='1325'> +8.0358107e+01 </wgt>
<wgt id='1326'> +8.0027645e+01 </wgt>
<wgt id='1327'> +8.0122219e+01 </wgt>
<wgt id='1328'> +8.3054240e+01 </wgt>
<wgt id='1329'> +7.8598511e+01 </wgt>
<wgt id='1330'> +8.1376110e+01 </wgt>
<wgt id='1331'> +7.9964095e+01 </wgt>
<wgt id='1332'> +8.0224553e+01 </wgt>
<wgt id='1333'> +7.7944738e+01 </wgt>
<wgt id='1334'> +8.0573232e+01 </wgt>
<wgt id='1335'> +8.2113940e+01 </wgt>
<wgt id='1336'> +7.7289517e+01 </wgt>
<wgt id='1337'> +8.2414102e+01 </wgt>
<wgt id='1338'> +7.7386412e+01 </wgt>
<wgt id='1339'> +8.0862630e+01 </wgt>
<wgt id='1340'> +7.9018077e+01 </wgt>
<wgt id='1341'> +8.0765317e+01 </wgt>
<wgt id='1342'> +7.8532502e+01 </wgt>
<wgt id='1343'> +8.0608921e+01 </wgt>
<wgt id='1344'> +7.9279884e+01 </wgt>
<wgt id='1345'> +8.1518849e+01 </wgt>
<wgt id='1346'> +7.8969698e+01 </wgt>
<wgt id='1347'> +8.0547498e+01 </wgt>
<wgt id='1348'> +7.9322829e+01 </wgt>
<wgt id='1349'> +7.9286317e+01 </wgt>
<wgt id='1350'> +8.0307844e+01 </wgt>
<wgt id='1351'> +7.9729331e+01 </wgt>
<wgt id='1352'> +8.0460885e+01 </wgt>
<wgt id='1353'> +8.0889094e+01 </wgt>
<wgt id='1354'> +7.8217090e+01 </wgt>
<wgt id='1355'> +7.9397722e+01 </wgt>
<wgt id='1356'> +8.0859615e+01 </wgt>
<wgt id='1357'> +8.0362673e+01 </wgt>
<wgt id='1358'> +7.8953058e+01 </wgt>
<wgt id='1359'> +7.8728466e+01 </wgt>
<wgt id='1360'> +8.0332356e+01 </wgt>
<wgt id='1361'> +8.1659043e+01 </wgt>
<wgt id='1362'> +7.8417190e+01 </wgt>
<wgt id='1363'> +8.0624798e+01 </wgt>
<wgt id='1364'> +7.9052721e+01 </wgt>
<wgt id='1365'> +7.9338248e+01 </wgt>
<wgt id='1366'> +7.9641730e+01 </wgt>
<wgt id='1367'> +7.9374201e+01 </wgt>
<wgt id='1368'> +8.0143835e+01 </wgt>
<wgt id='1369'> +7.9910135e+01 </wgt>
<wgt id='1370'> +7.9788747e+01 </wgt>
<wgt id='1371'> +7.8323210e+01 </wgt>
<wgt id='1372'> +7.8825223e+01 </wgt>
<wgt id='1373'> +7.9683287e+01 </wgt>
<wgt id='1374'> +7.9122561e+01 </wgt>
<wgt id='1375'> +7.7692891e+01 </wgt>
<wgt id='1376'> +8.3099728e+01 </wgt>
<wgt id='1377'> +8.0056174e+01 </wgt>
<wgt id='1378'> +7.9992912e+01 </wgt>
<wgt id='1379'> +8.4646875e+01 </wgt>
<wgt id='1380'> +8.4310381e+01 </wgt>
<wgt id='1381'> +8.5144651e+01 </wgt>
<wgt id='1382'> +6.8684355e+01 </wgt>
<wgt id='1383'> +7.6250352e+01 </wgt>
<wgt id='1384'> +8.2802087e+01 </wgt>
<wgt id='1385'> +6.0506295e+01 </wgt>
<wgt id='1386'> +6.0732630e+01 </wgt>
<wgt id='1387'> +6.0255334e+01 </wgt>
<wgt id='1388'> +5.9994387e+01 </wgt>
<wgt id='1389'> +6.1389942e+01 </wgt>
<wgt id='1390'> +6.1020134e+01 </wgt>
<wgt id='1391'> +5.9902154e+01 </wgt>
<wgt id='1392'> +6.0388612e+01 </wgt>
<wgt id='1393'> +6.0593574e+01 </wgt>
<wgt id='1394'> +6.0416441e+01 </wgt>
<wgt id='1395'> +6.0616923e+01 </wgt>
<wgt id='1396'> +6.0454827e+01 </wgt>
<wgt id='1397'> +6.0527142e+01 </wgt>
<wgt id='1398'> +6.0350974e+01 </wgt>
<wgt id='1399'> +6.0606294e+01 </wgt>
<wgt id='1400'> +6.0760184e+01 </wgt>
<wgt id='1401'> +6.0298559e+01 </wgt>
<wgt id='1402'> +6.0894085e+01 </wgt>
<wgt id='1403'> +6.0329055e+01 </wgt>
<wgt id='1404'> +5.9796584e+01 </wgt>
<wgt id='1405'> +6.0862990e+01 </wgt>
<wgt id='1406'> +6.0002728e+01 </wgt>
<wgt id='1407'> +6.1396556e+01 </wgt>
<wgt id='1408'> +6.0018014e+01 </wgt>
<wgt id='1409'> +6.1493878e+01 </wgt>
<wgt id='1410'> +6.0700917e+01 </wgt>
<wgt id='1411'> +5.9989186e+01 </wgt>
<wgt id='1412'> +6.1174373e+01 </wgt>
<wgt id='1413'> +5.9560370e+01 </wgt>
<wgt id='1414'> +6.0454996e+01 </wgt>
<wgt id='1415'> +6.0559072e+01 </wgt>
<wgt id='1416'> +6.0543645e+01 </wgt>
<wgt id='1417'> +6.0480335e+01 </wgt>
<wgt id='1418'> +6.0299113e+01 </wgt>
<wgt id='1419'> +6.0938779e+01 </wgt>
<wgt id='1420'> +6.0368397e+01 </wgt>
<wgt id='1421'> +6.0356832e+01 </wgt>
<wgt id='1422'> +6.0604454e+01 </wgt>
<wgt id='1423'> +6.0425517e+01 </wgt>
<wgt id='1424'> +6.0629399e+01 </wgt>
<wgt id='1425'> +6.0155728e+01 </wgt>
<wgt id='1426'> +6.1270247e+01 </wgt>
<wgt id='1427'> +6.1051888e+01 </wgt>
<wgt id='1428'> +6.0188539e+01 </wgt>
<wgt id='1429'> +5.9811299e+01 </wgt>
<wgt id='1430'> +6.1232828e+01 </wgt>
<wgt id='1431'> +6.1348958e+01 </wgt>
<wgt id='1432'> +6.1218353e+01 </wgt>
<wgt id='1433'> +6.1627939e+01 </wgt>
<wgt id='1434'> +6.0353689e+01 </wgt>
<wgt id='1435'> +6.0624053e+01 </wgt>
<wgt id='1436'> +9.0192544e+01 </wgt>
<wgt id='1437'> +9.0389100e+01 </wgt>
<wgt id='1438'> +8.9809017e+01 </wgt>
<wgt id='1439'> +9.0195766e+01 </wgt>
<wgt id='1440'> +9.0146319e+01 </wgt>
<wgt id='1441'> +9.0673250e+01 </wgt>
<wgt id='1442'> +9.0163113e+01 </wgt>
<wgt id='1443'> +9.0568183e+01 </wgt>
<wgt id='1444'> +8.9994658e+01 </wgt>
<wgt id='1445'> +8.9968142e+01 </wgt>
<wgt id='1446'> +9.0249655e+01 </wgt>
<wgt id='1447'> +9.0310683e+01 </wgt>
<wgt id='1448'> +8.9872130e+01 </wgt>
<wgt id='1449'> +9.0493096e+01 </wgt>
<wgt id='1450'> +9.0249182e+01 </wgt>
<wgt id='1451'> +9.0119858e+01 </wgt>
<wgt id='1452'> +9.0174927e+01 </wgt>
<wgt id='1453'> +8.9967478e+01 </wgt>
<wgt id='1454'> +9.0226278e+01 </wgt>
<wgt id='1455'> +9.0136297e+01 </wgt>
<wgt id='1456'> +8.9958689e+01 </wgt>
<wgt id='1457'> +9.0353511e+01 </wgt>
<wgt id='1458'> +8.9659427e+01 </wgt>
<wgt id='1459'> +9.0249045e+01 </wgt>
<wgt id='1460'> +9.0184303e+01 </wgt>
<wgt id='1461'> +9.0495303e+01 </wgt>
<wgt id='1462'> +9.0502796e+01 </wgt>
<wgt id='1463'> +9.0037757e+01 </wgt>
<wgt id='1464'> +9.0409905e+01 </wgt>
<wgt id='1465'> +8.5788526e+01 </wgt>
<wgt id='1466'> +7.7350939e+01 </wgt>
<wgt id='1467'> +7.7155986e+01 </wgt>
<wgt id='1468'> +7.6621367e+01 </wgt>
<wgt id='1469'> +7.9126439e+01 </wgt>
<wgt id='1470'> +7.7007761e+01 </wgt>
<wgt id='1471'> +7.7382161e+01 </wgt>
<wgt id='1472'> +7.6094721e+01 </wgt>
<wgt id='1473'> +7.8136457e+01 </wgt>
<wgt id='1474'> +7.7970082e+01 </wgt>
<wgt id='1475'> +7.6875228e+01 </wgt>
<wgt id='1476'> +7.6879451e+01 </wgt>
<wgt id='1477'> +7.6110371e+01 </wgt>
<wgt id='1478'> +7.7007090e+01 </wgt>
<wgt id='1479'> +7.8043973e+01 </wgt>
<wgt id='1480'> +7.7199091e+01 </wgt>
<wgt id='1481'> +7.7088137e+01 </wgt>
<wgt id='1482'> +7.6900389e+01 </wgt>
<wgt id='1483'> +7.7540504e+01 </wgt>
<wgt id='1484'> +7.8292068e+01 </wgt>
<wgt id='1485'> +7.6850227e+01 </wgt>
<wgt id='1486'> +7.7548150e+01 </wgt>
<wgt id='1487'> +7.6922772e+01 </wgt>
<wgt id='1488'> +7.6668815e+01 </wgt>
<wgt id='1489'> +7.7553483e+01 </wgt>
<wgt id='1490'> +7.7456337e+01 </wgt>
<wgt id='1491'> +7.7498304e+01 </wgt>
<wgt id='1492'> +7.7320939e+01 </wgt>
<wgt id='1493'> +7.7274815e+01 </wgt>
<wgt id='1494'> +7.7219277e+01 </wgt>
<wgt id='1495'> +7.7434223e+01 </wgt>
<wgt id='1496'> +7.7477120e+01 </wgt>
<wgt id='1497'> +7.7330270e+01 </wgt>
<wgt id='1498'> +7.6646724e+01 </wgt>
<wgt id='1499'> +7.7111226e+01 </wgt>
<wgt id='1500'> +7.7847477e+01 </wgt>
<wgt id='1501'> +7.7736085e+01 </wgt>
<wgt id='1502'> +7.6979176e+01 </wgt>
<wgt id='1503'> +7.7357989e+01 </wgt>
<wgt id='1504'> +7.7261957e+01 </wgt>
<wgt id='1505'> +7.7492052e+01 </wgt>
<wgt id='1506'> +7.7074637e+01 </wgt>
<wgt id='1507'> +7.7325431e+01 </wgt>
<wgt id='1508'> +7.7206430e+01 </wgt>
<wgt id='1509'> +7.7307638e+01 </wgt>
<wgt id='1510'> +7.7381179e+01 </wgt>
<wgt id='1511'> +7.7588726e+01 </wgt>
<wgt id='1512'> +7.7657866e+01 </wgt>
<wgt id='1513'> +7.7522981e+01 </wgt>
<wgt id='1514'> +7.7501395e+01 </wgt>
<wgt id='1515'> +7.7492180e+01 </wgt>
<wgt id='1516'> +7.7447496e+01 </wgt>
<wgt id='1517'> +7.7303740e+01 </wgt>
<wgt id='1518'> +7.7296412e+01 </wgt>
<wgt id='1519'> +7.7269914e+01 </wgt>
<wgt id='1520'> +7.7336767e+01 </wgt>
<wgt id='1521'> +7.7388733e+01 </wgt>
<wgt id='1522'> +7.7391518e+01 </wgt>
<wgt id='1523'> +7.7277640e+01 </wgt>
<wgt id='1524'> +7.7471010e+01 </wgt>
<wgt id='1525'> +7.7441605e+01 </wgt>
<wgt id='1526'> +7.7406130e+01 </wgt>
<wgt id='1527'> +7.7433831e+01 </wgt>
<wgt id='1528'> +7.7389750e+01 </wgt>
<wgt id='1529'> +7.7330308e+01 </wgt>
<wgt id='1530'> +7.7355085e+01 </wgt>
<wgt id='1531'> +7.7352221e+01 </wgt>
<wgt id='1532'> +7.7307911e+01 </wgt>
<wgt id='1533'> +7.7236054e+01 </wgt>
<wgt id='1534'> +7.7387366e+01 </wgt>
<wgt id='1535'> +7.7330115e+01 </wgt>
<wgt id='1536'> +7.7398175e+01 </wgt>
<wgt id='1537'> +7.7394438e+01 </wgt>
<wgt id='1538'> +7.7266737e+01 </wgt>
<wgt id='1539'> +7.7283607e+01 </wgt>
<wgt id='1540'> +7.7363606e+01 </wgt>
<wgt id='1541'> +7.7347568e+01 </wgt>
<wgt id='1542'> +7.7278074e+01 </wgt>
<wgt id='1543'> +7.7374286e+01 </wgt>
<wgt id='1544'> +7.7344831e+01 </wgt>
<wgt id='1545'> +7.7382145e+01 </wgt>
<wgt id='1546'> +7.7379030e+01 </wgt>
<wgt id='1547'> +7.7397387e+01 </wgt>
<wgt id='1548'> +7.7348509e+01 </wgt>
<wgt id='1549'> +7.7330004e+01 </wgt>
<wgt id='1550'> +7.7412614e+01 </wgt>
<wgt id='1551'> +7.7292994e+01 </wgt>
<wgt id='1552'> +7.7363914e+01 </wgt>
<wgt id='1553'> +7.7312314e+01 </wgt>
<wgt id='1554'> +7.7300080e+01 </wgt>
<wgt id='1555'> +7.7288338e+01 </wgt>
<wgt id='1556'> +7.7340647e+01 </wgt>
<wgt id='1557'> +7.7320692e+01 </wgt>
<wgt id='1558'> +7.7381725e+01 </wgt>
<wgt id='1559'> +7.7351463e+01 </wgt>
<wgt id='1560'> +7.7339104e+01 </wgt>
<wgt id='1561'> +7.7318367e+01 </wgt>
<wgt id='1562'> +7.7360759e+01 </wgt>
<wgt id='1563'> +7.7331056e+01 </wgt>
<wgt id='1564'> +7.7335375e+01 </wgt>
<wgt id='1565'> +7.7353118e+01 </wgt>
<wgt id='1566'> +7.7341321e+01 </wgt>
<wgt id='1567'> +7.7115116e+01 </wgt>
<wgt id='1568'> +7.7425319e+01 </wgt>
<wgt id='1569'> +8.2791352e+01 </wgt>
<wgt id='1570'> +8.3168996e+01 </wgt>
<wgt id='1571'> +8.2254864e+01 </wgt>
<wgt id='1572'> +8.3508086e+01 </wgt>
<wgt id='1573'> +8.3921325e+01 </wgt>
<wgt id='1574'> +8.4086541e+01 </wgt>
<wgt id='1575'> +8.3529630e+01 </wgt>
<wgt id='1576'> +8.2873909e+01 </wgt>
<wgt id='1577'> +8.2735373e+01 </wgt>
<wgt id='1578'> +8.3036888e+01 </wgt>
<wgt id='1579'> +8.2844345e+01 </wgt>
<wgt id='1580'> +8.3969006e+01 </wgt>
<wgt id='1581'> +8.2687079e+01 </wgt>
<wgt id='1582'> +8.3484389e+01 </wgt>
<wgt id='1583'> +8.2005025e+01 </wgt>
<wgt id='1584'> +8.2854994e+01 </wgt>
<wgt id='1585'> +8.2451473e+01 </wgt>
<wgt id='1586'> +8.2705625e+01 </wgt>
<wgt id='1587'> +8.3447491e+01 </wgt>
<wgt id='1588'> +8.1414598e+01 </wgt>
<wgt id='1589'> +8.2866600e+01 </wgt>
<wgt id='1590'> +8.3011595e+01 </wgt>
<wgt id='1591'> +8.2550813e+01 </wgt>
<wgt id='1592'> +8.2968591e+01 </wgt>
<wgt id='1593'> +8.3105109e+01 </wgt>
<wgt id='1594'> +8.2906470e+01 </wgt>
<wgt id='1595'> +8.2865151e+01 </wgt>
<wgt id='1596'> +8.2757073e+01 </wgt>
<wgt id='1597'> +8.3068032e+01 </wgt>
<wgt id='1598'> +8.3294713e+01 </wgt>
<wgt id='1599'> +8.2896570e+01 </wgt>
<wgt id='1600'> +8.3324329e+01 </wgt>
<wgt id='1601'> +8.2945630e+01 </wgt>
<wgt id='1602'> +8.3165731e+01 </wgt>
<wgt id='1603'> +8.2975651e+01 </wgt>
<wgt id='1604'> +8.2917370e+01 </wgt>
<wgt id='1605'> +8.3558278e+01 </wgt>
<wgt id='1606'> +8.2943108e+01 </wgt>
<wgt id='1607'> +8.2399044e+01 </wgt>
<wgt id='1608'> +8.3107740e+01 </wgt>
<wgt id='1609'> +8.2295790e+01 </wgt>
<wgt id='1610'> +8.2420902e+01 </wgt>
<wgt id='1611'> +8.2795771e+01 </wgt>
<wgt id='1612'> +8.2817025e+01 </wgt>
<wgt id='1613'> +8.2917476e+01 </wgt>
<wgt id='1614'> +8.2702303e+01 </wgt>
<wgt id='1615'> +8.2541357e+01 </wgt>
<wgt id='1616'> +8.2843304e+01 </wgt>
<wgt id='1617'> +8.2703894e+01 </wgt>
<wgt id='1618'> +8.2805298e+01 </wgt>
<wgt id='1619'> +8.2622307e+01 </wgt>
<wgt id='1620'> +8.2812862e+01 </wgt>
<wgt id='1621'> +8.2887567e+01 </wgt>
<wgt id='1622'> +8.2695122e+01 </wgt>
<wgt id='1623'> +8.2885323e+01 </wgt>
<wgt id='1624'> +8.2609532e+01 </wgt>
<wgt id='1625'> +8.2776298e+01 </wgt>
<wgt id='1626'> +8.2772671e+01 </wgt>
<wgt id='1627'> +8.2790389e+01 </wgt>
<wgt id='1628'> +8.2803791e+01 </wgt>
<wgt id='1629'> +8.2712649e+01 </wgt>
<wgt id='1630'> +8.2784198e+01 </wgt>
<wgt id='1631'> +8.2937847e+01 </wgt>
<wgt id='1632'> +8.2833325e+01 </wgt>
<wgt id='1633'> +8.2787076e+01 </wgt>
<wgt id='1634'> +8.2801188e+01 </wgt>
<wgt id='1635'> +8.2831806e+01 </wgt>
<wgt id='1636'> +8.2831881e+01 </wgt>
<wgt id='1637'> +8.2691628e+01 </wgt>
<wgt id='1638'> +8.2809075e+01 </wgt>
<wgt id='1639'> +8.2861389e+01 </wgt>
<wgt id='1640'> +8.2883224e+01 </wgt>
<wgt id='1641'> +8.2811706e+01 </wgt>
<wgt id='1642'> +8.2833629e+01 </wgt>
<wgt id='1643'> +8.2835782e+01 </wgt>
<wgt id='1644'> +8.2791419e+01 </wgt>
<wgt id='1645'> +8.2796690e+01 </wgt>
<wgt id='1646'> +8.2781761e+01 </wgt>
<wgt id='1647'> +8.2811606e+01 </wgt>
<wgt id='1648'> +8.2808432e+01 </wgt>
<wgt id='1649'> +8.2804405e+01 </wgt>
<wgt id='1650'> +8.2753138e+01 </wgt>
<wgt id='1651'> +8.2807807e+01 </wgt>
<wgt id='1652'> +8.2737497e+01 </wgt>
<wgt id='1653'> +8.2742274e+01 </wgt>
<wgt id='1654'> +8.2771236e+01 </wgt>
<wgt id='1655'> +8.2745439e+01 </wgt>
<wgt id='1656'> +8.2780724e+01 </wgt>
<wgt id='1657'> +8.2817481e+01 </wgt>
<wgt id='1658'> +8.2833539e+01 </wgt>
<wgt id='1659'> +8.2805360e+01 </wgt>
<wgt id='1660'> +8.2760695e+01 </wgt>
<wgt id='1661'> +8.2771192e+01 </wgt>
<wgt id='1662'> +8.2774154e+01 </wgt>
<wgt id='1663'> +8.2782602e+01 </wgt>
<wgt id='1664'> +8.2786621e+01 </wgt>
<wgt id='1665'> +8.2784201e+01 </wgt>
<wgt id='1666'> +8.2778555e+01 </wgt>
<wgt id='1667'> +8.2781263e+01 </wgt>
<wgt id='1668'> +8.2781210e+01 </wgt>
<wgt id='1669'> +8.2784852e+01 </wgt>
<wgt id='1670'> +8.2528547e+01 </wgt>
<wgt id='1671'> +8.3214443e+01 </wgt>
<wgt id='1672'> +7.7348168e+01 </wgt>
<wgt id='1673'> +7.6922230e+01 </wgt>
<wgt id='1674'> +7.6062456e+01 </wgt>
<wgt id='1675'> +7.7333167e+01 </wgt>
<wgt id='1676'> +7.9593885e+01 </wgt>
<wgt id='1677'> +7.7833529e+01 </wgt>
<wgt id='1678'> +7.7100736e+01 </wgt>
<wgt id='1679'> +7.7435863e+01 </wgt>
<wgt id='1680'> +7.7459813e+01 </wgt>
<wgt id='1681'> +7.8077918e+01 </wgt>
<wgt id='1682'> +7.7191980e+01 </wgt>
<wgt id='1683'> +7.6328315e+01 </wgt>
<wgt id='1684'> +7.7534130e+01 </wgt>
<wgt id='1685'> +7.7239302e+01 </wgt>
<wgt id='1686'> +7.6744801e+01 </wgt>
<wgt id='1687'> +7.7562763e+01 </wgt>
<wgt id='1688'> +7.7688978e+01 </wgt>
<wgt id='1689'> +7.6756772e+01 </wgt>
<wgt id='1690'> +7.7449891e+01 </wgt>
<wgt id='1691'> +7.7328673e+01 </wgt>
<wgt id='1692'> +7.8180399e+01 </wgt>
<wgt id='1693'> +7.7182091e+01 </wgt>
<wgt id='1694'> +7.7191210e+01 </wgt>
<wgt id='1695'> +7.7474819e+01 </wgt>
<wgt id='1696'> +7.7171215e+01 </wgt>
<wgt id='1697'> +7.7355669e+01 </wgt>
<wgt id='1698'> +7.7455106e+01 </wgt>
<wgt id='1699'> +7.7470826e+01 </wgt>
<wgt id='1700'> +7.7301078e+01 </wgt>
<wgt id='1701'> +7.7006079e+01 </wgt>
<wgt id='1702'> +7.7482529e+01 </wgt>
<wgt id='1703'> +7.7115116e+01 </wgt>
<wgt id='1704'> +7.7425319e+01 </wgt>
<wgt id='1705'> +8.2789077e+01 </wgt>
<wgt id='1706'> +8.2686195e+01 </wgt>
<wgt id='1707'> +8.3743904e+01 </wgt>
<wgt id='1708'> +8.2847290e+01 </wgt>
<wgt id='1709'> +8.0274997e+01 </wgt>
<wgt id='1710'> +8.2464272e+01 </wgt>
<wgt id='1711'> +8.2833492e+01 </wgt>
<wgt id='1712'> +8.2754974e+01 </wgt>
<wgt id='1713'> +8.2682675e+01 </wgt>
<wgt id='1714'> +8.2262322e+01 </wgt>
<wgt id='1715'> +8.2655638e+01 </wgt>
<wgt id='1716'> +8.3216850e+01 </wgt>
<wgt id='1717'> +8.2780304e+01 </wgt>
<wgt id='1718'> +8.2824854e+01 </wgt>
<wgt id='1719'> +8.2598374e+01 </wgt>
<wgt id='1720'> +8.2881705e+01 </wgt>
<wgt id='1721'> +8.2702116e+01 </wgt>
<wgt id='1722'> +8.2679762e+01 </wgt>
<wgt id='1723'> +8.2839230e+01 </wgt>
<wgt id='1724'> +8.2829625e+01 </wgt>
<wgt id='1725'> +8.2106163e+01 </wgt>
<wgt id='1726'> +8.2922851e+01 </wgt>
<wgt id='1727'> +8.3221776e+01 </wgt>
<wgt id='1728'> +8.2800603e+01 </wgt>
<wgt id='1729'> +8.2644316e+01 </wgt>
<wgt id='1730'> +8.2833840e+01 </wgt>
<wgt id='1731'> +8.2825206e+01 </wgt>
<wgt id='1732'> +8.3094715e+01 </wgt>
<wgt id='1733'> +8.2836463e+01 </wgt>
<wgt id='1734'> +8.2589390e+01 </wgt>
<wgt id='1735'> +8.4341280e+01 </wgt>
<wgt id='1736'> +8.2528547e+01 </wgt>
<wgt id='1737'> +8.3214443e+01 </wgt>
<wgt id='1738'> +8.9085915e+01 </wgt>
<wgt id='1739'> +8.9342423e+01 </wgt>
<wgt id='1740'> +8.8831196e+01 </wgt>
<wgt id='1741'> +8.9015675e+01 </wgt>
<wgt id='1742'> +8.9155948e+01 </wgt>
<wgt id='1743'> +8.9291110e+01 </wgt>
<wgt id='1744'> +8.8880913e+01 </wgt>
<wgt id='1745'> +8.8753417e+01 </wgt>
<wgt id='1746'> +8.9403364e+01 </wgt>
<wgt id='1747'> +8.9457609e+01 </wgt>
<wgt id='1748'> +8.8713590e+01 </wgt>
<wgt id='1749'> +8.9497695e+01 </wgt>
<wgt id='1750'> +8.8660200e+01 </wgt>
<wgt id='1751'> +8.9066092e+01 </wgt>
<wgt id='1752'> +8.9102648e+01 </wgt>
<wgt id='1753'> +8.8938836e+01 </wgt>
<wgt id='1754'> +8.9174217e+01 </wgt>
<wgt id='1755'> +8.8903936e+01 </wgt>
<wgt id='1756'> +8.9158155e+01 </wgt>
<wgt id='1757'> +8.8741278e+01 </wgt>
<wgt id='1758'> +8.9451150e+01 </wgt>
<wgt id='1759'> +8.9415265e+01 </wgt>
<wgt id='1760'> +8.8642069e+01 </wgt>
<wgt id='1761'> +8.8570845e+01 </wgt>
<wgt id='1762'> +8.9205466e+01 </wgt>
<wgt id='1763'> +8.9123950e+01 </wgt>
<wgt id='1764'> +8.9175250e+01 </wgt>
<wgt id='1765'> +8.8441072e+01 </wgt>
<wgt id='1766'> +8.9701364e+01 </wgt>
<wgt id='1767'> +8.9085915e+01 </wgt>
<wgt id='1768'> +9.1049591e+01 </wgt>
<wgt id='1769'> +8.6677540e+01 </wgt>
<wgt id='1770'> +9.1345844e+01 </wgt>
<wgt id='1771'> +8.7427272e+01 </wgt>
<wgt id='1772'> +8.9262509e+01 </wgt>
<wgt id='1773'> +8.8755959e+01 </wgt>
<wgt id='1774'> +8.8867075e+01 </wgt>
<wgt id='1775'> +8.9301491e+01 </wgt>
<wgt id='1776'> +8.7867771e+01 </wgt>
<wgt id='1777'> +9.0290153e+01 </wgt>
<wgt id='1778'> +8.9081792e+01 </wgt>
<wgt id='1779'> +9.0326291e+01 </wgt>
<wgt id='1780'> +9.0921245e+01 </wgt>
<wgt id='1781'> +9.1978795e+01 </wgt>
<wgt id='1782'> +9.2281032e+01 </wgt>
<wgt id='1783'> +9.1711415e+01 </wgt>
<wgt id='1784'> +9.1812223e+01 </wgt>
<wgt id='1785'> +9.2178914e+01 </wgt>
<wgt id='1786'> +9.2125282e+01 </wgt>
<wgt id='1787'> +9.1865791e+01 </wgt>
<wgt id='1788'> +9.1521535e+01 </wgt>
<wgt id='1789'> +9.2445519e+01 </wgt>
<wgt id='1790'> +9.2410215e+01 </wgt>
<wgt id='1791'> +9.1574483e+01 </wgt>
<wgt id='1792'> +9.1968503e+01 </wgt>
<wgt id='1793'> +9.2021682e+01 </wgt>
<wgt id='1794'> +9.1843632e+01 </wgt>
<wgt id='1795'> +9.2148755e+01 </wgt>
<wgt id='1796'> +9.1900489e+01 </wgt>
<wgt id='1797'> +9.2103682e+01 </wgt>
<wgt id='1798'> +9.1942329e+01 </wgt>
<wgt id='1799'> +9.2026852e+01 </wgt>
<wgt id='1800'> +9.1943470e+01 </wgt>
<wgt id='1801'> +9.2038324e+01 </wgt>
<wgt id='1802'> +9.1217348e+01 </wgt>
<wgt id='1803'> +9.2641780e+01 </wgt>
<wgt id='1804'> +9.1768123e+01 </wgt>
<wgt id='1805'> +9.2221374e+01 </wgt>
<wgt id='1806'> +9.1744727e+01 </wgt>
<wgt id='1807'> +9.2036152e+01 </wgt>
<wgt id='1808'> +9.1814000e+01 </wgt>
<wgt id='1809'> +9.2208905e+01 </wgt>
<wgt id='1810'> +9.1978751e+01 </wgt>
<wgt id='1811'> +9.4318357e+01 </wgt>
<wgt id='1812'> +8.8972216e+01 </wgt>
<wgt id='1813'> +9.4688681e+01 </wgt>
<wgt id='1814'> +9.0016794e+01 </wgt>
<wgt id='1815'> +9.1776131e+01 </wgt>
<wgt id='1816'> +9.1455564e+01 </wgt>
<wgt id='1817'> +9.1777120e+01 </wgt>
<wgt id='1818'> +9.2356742e+01 </wgt>
<wgt id='1819'> +9.0219805e+01 </wgt>
<wgt id='1820'> +9.2808258e+01 </wgt>
<wgt id='1821'> +9.1024736e+01 </wgt>
<wgt id='1822'> +9.3829936e+01 </wgt>
<wgt id='1823'> +9.2032891e+01 </wgt>
<wgt id='1824'> +7.9092278e+01 </wgt>
<wgt id='1825'> +7.9057157e+01 </wgt>
<wgt id='1826'> +7.9022266e+01 </wgt>
<wgt id='1827'> +7.8987094e+01 </wgt>
<wgt id='1828'> +7.8952320e+01 </wgt>
<wgt id='1829'> +7.8917052e+01 </wgt>
<wgt id='1830'> +7.8882219e+01 </wgt>
<wgt id='1831'> +7.8847339e+01 </wgt>
<wgt id='1832'> +7.8811929e+01 </wgt>
<wgt id='1833'> +7.8777348e+01 </wgt>
<wgt id='1834'> +7.8742379e+01 </wgt>
<wgt id='1835'> +7.8707476e+01 </wgt>
<wgt id='1836'> +7.8672364e+01 </wgt>
<wgt id='1837'> +7.8637789e+01 </wgt>
<wgt id='1838'> +7.8602566e+01 </wgt>
<wgt id='1839'> +7.8567332e+01 </wgt>
<wgt id='1840'> +7.8532857e+01 </wgt>
<wgt id='1841'> +7.8497702e+01 </wgt>
<wgt id='1842'> +7.8463114e+01 </wgt>
<wgt id='1843'> +7.8427991e+01 </wgt>
<wgt id='1844'> +7.8393348e+01 </wgt>
<wgt id='1845'> +7.8358509e+01 </wgt>
<wgt id='1846'> +7.8323335e+01 </wgt>
<wgt id='1847'> +7.8288558e+01 </wgt>
<wgt id='1848'> +7.8253785e+01 </wgt>
<wgt id='1849'> +7.8219071e+01 </wgt>
<wgt id='1850'> +7.8183990e+01 </wgt>
<wgt id='1851'> +7.8149385e+01 </wgt>
<wgt id='1852'> +7.8114423e+01 </wgt>
<wgt id='1853'> +7.8079271e+01 </wgt>
<wgt id='1854'> +7.8045012e+01 </wgt>
<wgt id='1855'> +8.2399004e+01 </wgt>
<wgt id='1856'> +8.2747426e+01 </wgt>
<wgt id='1857'> +8.1859765e+01 </wgt>
<wgt id='1858'> +8.3110872e+01 </wgt>
<wgt id='1859'> +8.3516037e+01 </wgt>
<wgt id='1860'> +8.3683897e+01 </wgt>
<wgt id='1861'> +8.3152897e+01 </wgt>
<wgt id='1862'> +8.2503499e+01 </wgt>
<wgt id='1863'> +8.2345198e+01 </wgt>
<wgt id='1864'> +8.2642655e+01 </wgt>
<wgt id='1865'> +8.2444374e+01 </wgt>
<wgt id='1866'> +8.3597884e+01 </wgt>
<wgt id='1867'> +8.2308667e+01 </wgt>
<wgt id='1868'> +8.3097378e+01 </wgt>
<wgt id='1869'> +8.1617351e+01 </wgt>
<wgt id='1870'> +8.2430611e+01 </wgt>
<wgt id='1871'> +8.2088428e+01 </wgt>
<wgt id='1872'> +8.2300256e+01 </wgt>
<wgt id='1873'> +8.3046558e+01 </wgt>
<wgt id='1874'> +8.1044663e+01 </wgt>
<wgt id='1875'> +8.2493047e+01 </wgt>
<wgt id='1876'> +8.2609886e+01 </wgt>
<wgt id='1877'> +8.2151462e+01 </wgt>
<wgt id='1878'> +8.2585010e+01 </wgt>
<wgt id='1879'> +8.2701863e+01 </wgt>
<wgt id='1880'> +8.2494201e+01 </wgt>
<wgt id='1881'> +8.2452374e+01 </wgt>
<wgt id='1882'> +8.2386771e+01 </wgt>
<wgt id='1883'> +8.2681752e+01 </wgt>
<wgt id='1884'> +8.2889125e+01 </wgt>
<wgt id='1885'> +8.2492514e+01 </wgt>
<wgt id='1886'> +8.2951839e+01 </wgt>
<wgt id='1887'> +8.2544093e+01 </wgt>
<wgt id='1888'> +8.2763816e+01 </wgt>
<wgt id='1889'> +8.2582592e+01 </wgt>
<wgt id='1890'> +8.2517988e+01 </wgt>
<wgt id='1891'> +8.3165365e+01 </wgt>
<wgt id='1892'> +8.2548386e+01 </wgt>
<wgt id='1893'> +8.2005035e+01 </wgt>
<wgt id='1894'> +8.2705699e+01 </wgt>
<wgt id='1895'> +8.1905677e+01 </wgt>
<wgt id='1896'> +8.2027473e+01 </wgt>
<wgt id='1897'> +8.2402460e+01 </wgt>
<wgt id='1898'> +8.2435449e+01 </wgt>
<wgt id='1899'> +8.2521143e+01 </wgt>
<wgt id='1900'> +8.2308906e+01 </wgt>
<wgt id='1901'> +8.2154783e+01 </wgt>
<wgt id='1902'> +8.2447398e+01 </wgt>
<wgt id='1903'> +8.2315467e+01 </wgt>
<wgt id='1904'> +8.2411018e+01 </wgt>
<wgt id='1905'> +8.2231621e+01 </wgt>
<wgt id='1906'> +8.2417512e+01 </wgt>
<wgt id='1907'> +8.2494828e+01 </wgt>
<wgt id='1908'> +8.2302513e+01 </wgt>
<wgt id='1909'> +8.2493992e+01 </wgt>
<wgt id='1910'> +8.2221028e+01 </wgt>
<wgt id='1911'> +8.2377315e+01 </wgt>
<wgt id='1912'> +8.2382013e+01 </wgt>
<wgt id='1913'> +8.2403878e+01 </wgt>
<wgt id='1914'> +8.2414608e+01 </wgt>
<wgt id='1915'> +8.2324845e+01 </wgt>
<wgt id='1916'> +8.2393474e+01 </wgt>
<wgt id='1917'> +8.2542571e+01 </wgt>
<wgt id='1918'> +8.2435871e+01 </wgt>
<wgt id='1919'> +8.2398044e+01 </wgt>
<wgt id='1920'> +8.2406616e+01 </wgt>
<wgt id='1921'> +8.2438143e+01 </wgt>
<wgt id='1922'> +8.2435585e+01 </wgt>
<wgt id='1923'> +8.2300352e+01 </wgt>
<wgt id='1924'> +8.2413969e+01 </wgt>
<wgt id='1925'> +8.2468467e+01 </wgt>
<wgt id='1926'> +8.2491477e+01 </wgt>
<wgt id='1927'> +8.2416970e+01 </wgt>
<wgt id='1928'> +8.2439249e+01 </wgt>
<wgt id='1929'> +8.2442573e+01 </wgt>
<wgt id='1930'> +8.2400119e+01 </wgt>
<wgt id='1931'> +8.2408079e+01 </wgt>
<wgt id='1932'> +8.2388880e+01 </wgt>
<wgt id='1933'> +8.2421726e+01 </wgt>
<wgt id='1934'> +8.2416559e+01 </wgt>
<wgt id='1935'> +8.2408602e+01 </wgt>
<wgt id='1936'> +8.2365001e+01 </wgt>
<wgt id='1937'> +8.2416214e+01 </wgt>
<wgt id='1938'> +8.2345045e+01 </wgt>
<wgt id='1939'> +8.2348946e+01 </wgt>
<wgt id='1940'> +8.2379768e+01 </wgt>
<wgt id='1941'> +8.2358150e+01 </wgt>
<wgt id='1942'> +8.2386279e+01 </wgt>
<wgt id='1943'> +8.2422944e+01 </wgt>
<wgt id='1944'> +8.2438400e+01 </wgt>
<wgt id='1945'> +8.2411689e+01 </wgt>
<wgt id='1946'> +8.2365747e+01 </wgt>
<wgt id='1947'> +8.2376593e+01 </wgt>
<wgt id='1948'> +8.2382790e+01 </wgt>
<wgt id='1949'> +8.2386472e+01 </wgt>
<wgt id='1950'> +8.2394336e+01 </wgt>
<wgt id='1951'> +8.2393968e+01 </wgt>
<wgt id='1952'> +8.2386526e+01 </wgt>
<wgt id='1953'> +8.2387457e+01 </wgt>
<wgt id='1954'> +8.2390900e+01 </wgt>
<wgt id='1955'> +8.2393839e+01 </wgt>
<wgt id='1956'> +8.2398758e+01 </wgt>
<wgt id='1957'> +8.2400151e+01 </wgt>
<wgt id='1958'> +8.2399198e+01 </wgt>
<wgt id='1959'> +8.2399267e+01 </wgt>
<wgt id='1960'> +8.2399635e+01 </wgt>
<wgt id='1961'> +8.2399093e+01 </wgt>
<wgt id='1962'> +8.2400238e+01 </wgt>
</rwgt>
</event>
<event npLO=" -1 " npNLO=" 1 ">
 7      1 -1.5146096e+02 1.10966040e+01 7.54677110e-03 1.73526830e-01
       -2 -1    0    0    0  501 +0.0000000000e+00 +0.0000000000e+00 +1.8098999000e+01 1.8098999000e+01 0.0000000000e+00 0.0000e+00 9.0000e+00
        2 -1    0    0  502    0 -0.0000000000e+00 -0.0000000000e+00 -1.6446742000e+02 1.6446742000e+02 0.0000000000e+00 0.0000e+00 9.0000e+00
       23  2    1    2    0    0 +6.8089166000e-01 +1.1075694000e+01 -1.1149639000e+02 1.4597143000e+02 9.3557893000e+01 0.0000e+00 0.0000e+00
       13  1    3    3    0    0 +2.5403459000e+01 +4.8544043000e+00 -5.6155276000e+01 6.1824882000e+01 0.0000000000e+00 0.0000e+00 9.0000e+00
      -13  1    3    3    0    0 -4.1551906000e+01 +2.3053746000e+00 -2.3175753000e+01 4.7633929000e+01 0.0000000000e+00 0.0000e+00 9.0000e+00
       22  1    3    3    0    0 +1.6829339000e+01 +3.9159152000e+00 -3.2165364000e+01 3.6512624000e+01 0.0000000000e+00 0.0000e+00 9.0000e+00
       21  1    1    2  502  501 -6.8089166000e-01 -1.1075694000e+01 -3.4872026000e+01 3.6594984000e+01 0.0000000000e+00 0.0000e+00 9.0000e+00
#aMCatNLO 1  0  0  6  1 0.16613001E+01 0.00000000E+00 -9  7  0 0.00000000E+00 0.00000000E+00 0.00000000E+00 0.00000000E+00 0.00000000E+00
<rwgt>
<wgt id='1001'> -1.5146000e+02 </wgt>
<wgt id='1002'> -1.5146000e+02 </wgt>
<wgt id='1003'> -1.4269000e+02 </wgt>
<wgt id='1004'> -1.5269000e+02 </wgt>
<wgt id='1005'> -1.5814000e+02 </wgt>
<wgt id='1006'> -1.5468000e+02 </wgt>
<wgt id='1007'> -1.4399000e+02 </wgt>
<wgt id='1008'> -1.5125000e+02 </wgt>
<wgt id='1009'> -1.5273000e+02 </wgt>
<wgt id='1010'> -1.4752000e+02 </wgt>
<wgt id='1011'> -1.4968000e+02 </wgt>
<wgt id='1012'> -1.4556000e+02 </wgt>
<wgt id='1013'> -1.4984000e+02 </wgt>
<wgt id='1014'> -1.5266000e+02 </wgt>
<wgt id='1015'> -1.5405000e+02 </wgt>
<wgt id='1016'> -1.5307000e+02 </wgt>
<wgt id='1017'> -1.5167000e+02 </wgt>
<wgt id='1018'> -1.4731000e+02 </wgt>
<wgt id='1019'> -1.5128000e+02 </wgt>
<wgt id='1020'> -1.4496000e+02 </wgt>
<wgt id='1021'> -1.5297000e+02 </wgt>
<wgt id='1022'> -1.4893000e+02 </wgt>
<wgt id='1023'> -1.5661000e+02 </wgt>
<wgt id='1024'> -1.4606000e+02 </wgt>
<wgt id='1025'> -1.5693000e+02 </wgt>
<wgt id='1026'> -1.5744000e+02 </wgt>
<wgt id='1027'> -1.5259000e+02 </wgt>
<wgt id='1028'> -1.5202000e+02 </wgt>
<wgt id='1029'> -1.4969000e+02 </wgt>
<wgt id='1030'> -1.5554000e+02 </wgt>
<wgt id='1031'> -1.5122000e+02 </wgt>
<wgt id='1032'> -1.5184000e+02 </wgt>
<wgt id='1033'> -1.5559000e+02 </wgt>
<wgt id='1034'> -1.4561000e+02 </wgt>
<wgt id='1035'> -1.5242000e+02 </wgt>
<wgt id='1036'> -1.5255000e+02 </wgt>
<wgt id='1037'> -1.5324000e+02 </wgt>
<wgt id='1038'> -1.5233000e+02 </wgt>
<wgt id='1039'> -1.4900000e+02 </wgt>
<wgt id='1040'> -1.4109000e+02 </wgt>
<wgt id='1041'> -1.5022000e+02 </wgt>
<wgt id='1042'> -1.5271000e+02 </wgt>
<wgt id='1043'> -1.5638000e+02 </wgt>
<wgt id='1044'> -1.5453000e+02 </wgt>
<wgt id='1045'> -1.5202000e+02 </wgt>
<wgt id='1046'> -1.4803000e+02 </wgt>
<wgt id='1047'> -1.5298000e+02 </wgt>
<wgt id='1048'> -1.5309000e+02 </wgt>
<wgt id='1049'> -1.4802000e+02 </wgt>
<wgt id='1050'> -1.5105000e+02 </wgt>
<wgt id='1051'> -1.4962000e+02 </wgt>
<wgt id='1052'> -1.5543000e+02 </wgt>
<wgt id='1053'> -1.5409000e+02 </wgt>
<wgt id='1054'> -1.4996000e+02 </wgt>
<wgt id='1055'> -1.5327000e+02 </wgt>
<wgt id='1056'> -1.5419000e+02 </wgt>
<wgt id='1057'> -1.5297000e+02 </wgt>
<wgt id='1058'> -1.4924000e+02 </wgt>
<wgt id='1059'> -1.5533000e+02 </wgt>
<wgt id='1060'> -1.5472000e+02 </wgt>
<wgt id='1061'> -1.5434000e+02 </wgt>
<wgt id='1062'> -1.5107000e+02 </wgt>
<wgt id='1063'> -1.5069000e+02 </wgt>
<wgt id='1064'> -1.5201000e+02 </wgt>
<wgt id='1065'> -1.5973000e+02 </wgt>
<wgt id='1066'> -1.4073000e+02 </wgt>
<wgt id='1067'> -1.5422000e+02 </wgt>
<wgt id='1068'> -1.5249000e+02 </wgt>
<wgt id='1069'> -1.5029000e+02 </wgt>
<wgt id='1070'> -1.5220000e+02 </wgt>
<wgt id='1071'> -1.5079000e+02 </wgt>
<wgt id='1072'> -1.4898000e+02 </wgt>
<wgt id='1073'> -1.5260000e+02 </wgt>
<wgt id='1074'> -1.4841000e+02 </wgt>
<wgt id='1075'> -1.4100000e+02 </wgt>
<wgt id='1076'> -1.5794000e+02 </wgt>
<wgt id='1077'> -1.5383000e+02 </wgt>
<wgt id='1078'> -1.4879000e+02 </wgt>
<wgt id='1079'> -1.4960000e+02 </wgt>
<wgt id='1080'> -1.5107000e+02 </wgt>
<wgt id='1081'> -1.4787000e+02 </wgt>
<wgt id='1082'> -1.5214000e+02 </wgt>
<wgt id='1083'> -1.5505000e+02 </wgt>
<wgt id='1084'> -1.5619000e+02 </wgt>
<wgt id='1085'> -1.4829000e+02 </wgt>
<wgt id='1086'> -1.5266000e+02 </wgt>
<wgt id='1087'> -1.5277000e+02 </wgt>
<wgt id='1088'> -1.5133000e+02 </wgt>
<wgt id='1089'> -1.5516000e+02 </wgt>
<wgt id='1090'> -1.5378000e+02 </wgt>
<wgt id='1091'> -1.4845000e+02 </wgt>
<wgt id='1092'> -1.5610000e+02 </wgt>
<wgt id='1093'> -1.4996000e+02 </wgt>
<wgt id='1094'> -1.4674000e+02 </wgt>
<wgt id='1095'> -1.4922000e+02 </wgt>
<wgt id='1096'> -1.5401000e+02 </wgt>
<wgt id='1097'> -1.4918000e+02 </wgt>
<wgt id='1098'> -1.5145000e+02 </wgt>
<wgt id='1099'> -1.5261000e+02 </wgt>
<wgt id='1100'> -1.5672000e+02 </wgt>
<wgt id='1101'> -1.5304000e+02 </wgt>
<wgt id='1102'> -1.4765000e+02 </wgt>
<wgt id='1103'> -1.4664000e+02 </wgt>
<wgt id='1104'> -1.5574000e+02 </wgt>
<wgt id='1105'> -1.5146096e+02 </wgt>
<wgt id='1106'> -5.4954187e+01 </wgt>
<wgt id='1107'> -1.0978483e+02 </wgt>
<wgt id='1108'> -8.5191710e+01 </wgt>
<wgt id='1109'> -6.1822092e+01 </wgt>
<wgt id='1110'> -1.2349620e+02 </wgt>
<wgt id='1111'> -6.5413287e+01 </wgt>
<wgt id='1112'> -4.7465682e+01 </wgt>
<wgt id='1113'> -9.4831578e+01 </wgt>
<wgt id='1114'> -8.4185950e+01 </wgt>
<wgt id='1115'> -9.0247862e+01 </wgt>
<wgt id='1116'> -8.2846056e+01 </wgt>
<wgt id='1117'> -8.1635132e+01 </wgt>
<wgt id='1118'> -8.2159016e+01 </wgt>
<wgt id='1119'> -8.2404666e+01 </wgt>
<wgt id='1120'> -8.6170951e+01 </wgt>
<wgt id='1121'> -8.4123028e+01 </wgt>
<wgt id='1122'> -8.2837271e+01 </wgt>
<wgt id='1123'> -8.0173963e+01 </wgt>
<wgt id='1124'> -8.2259397e+01 </wgt>
<wgt id='1125'> -8.5450948e+01 </wgt>
<wgt id='1126'> -8.1057805e+01 </wgt>
<wgt id='1127'> -8.3656036e+01 </wgt>
<wgt id='1128'> -8.5335317e+01 </wgt>
<wgt id='1129'> -8.5013236e+01 </wgt>
<wgt id='1130'> -8.4586009e+01 </wgt>
<wgt id='1131'> -8.5976064e+01 </wgt>
<wgt id='1132'> -8.3098805e+01 </wgt>
<wgt id='1133'> -8.4517349e+01 </wgt>
<wgt id='1134'> -8.1197619e+01 </wgt>
<wgt id='1135'> -8.1102841e+01 </wgt>
<wgt id='1136'> -8.4384503e+01 </wgt>
<wgt id='1137'> -8.4854450e+01 </wgt>
<wgt id='1138'> -8.3809890e+01 </wgt>
<wgt id='1139'> -8.2038301e+01 </wgt>
<wgt id='1140'> -8.8426208e+01 </wgt>
<wgt id='1141'> -8.6444013e+01 </wgt>
<wgt id='1142'> -8.3215385e+01 </wgt>
<wgt id='1143'> -8.6518897e+01 </wgt>
<wgt id='1144'> -8.4118042e+01 </wgt>
<wgt id='1145'> -8.5821759e+01 </wgt>
<wgt id='1146'> -8.1374208e+01 </wgt>
<wgt id='1147'> -8.4186460e+01 </wgt>
<wgt id='1148'> -8.3407864e+01 </wgt>
<wgt id='1149'> -8.6917411e+01 </wgt>
<wgt id='1150'> -8.3405059e+01 </wgt>
<wgt id='1151'> -8.3605592e+01 </wgt>
<wgt id='1152'> -8.3416689e+01 </wgt>
<wgt id='1153'> -8.3244728e+01 </wgt>
<wgt id='1154'> -8.6506396e+01 </wgt>
<wgt id='1155'> -8.5284937e+01 </wgt>
<wgt id='1156'> -8.5062526e+01 </wgt>
<wgt id='1157'> -8.5278665e+01 </wgt>
<wgt id='1158'> -8.5329046e+01 </wgt>
<wgt id='1159'> -8.5123178e+01 </wgt>
<wgt id='1160'> -8.7398578e+01 </wgt>
<wgt id='1161'> -8.5157247e+01 </wgt>
<wgt id='1162'> -8.5327807e+01 </wgt>
<wgt id='1163'> -8.6148248e+01 </wgt>
<wgt id='1164'> -8.5484595e+01 </wgt>
<wgt id='1165'> -8.3491244e+01 </wgt>
<wgt id='1166'> -8.1841260e+01 </wgt>
<wgt id='1167'> -8.5666762e+01 </wgt>
<wgt id='1168'> -8.5818411e+01 </wgt>
<wgt id='1169'> -8.8382287e+01 </wgt>
<wgt id='1170'> -8.2366307e+01 </wgt>
<wgt id='1171'> -8.5420428e+01 </wgt>
<wgt id='1172'> -8.1751671e+01 </wgt>
<wgt id='1173'> -8.3649165e+01 </wgt>
<wgt id='1174'> -8.6216460e+01 </wgt>
<wgt id='1175'> -8.4320414e+01 </wgt>
<wgt id='1176'> -8.3873810e+01 </wgt>
<wgt id='1177'> -8.5477831e+01 </wgt>
<wgt id='1178'> -8.4049759e+01 </wgt>
<wgt id='1179'> -8.5074398e+01 </wgt>
<wgt id='1180'> -8.6233594e+01 </wgt>
<wgt id='1181'> -8.7337023e+01 </wgt>
<wgt id='1182'> -8.4917235e+01 </wgt>
<wgt id='1183'> -8.4968286e+01 </wgt>
<wgt id='1184'> -8.3980988e+01 </wgt>
<wgt id='1185'> -8.2111158e+01 </wgt>
<wgt id='1186'> -8.6931199e+01 </wgt>
<wgt id='1187'> -7.7460588e+01 </wgt>
<wgt id='1188'> -8.1475911e+01 </wgt>
<wgt id='1189'> -8.3335798e+01 </wgt>
<wgt id='1190'> -8.8216047e+01 </wgt>
<wgt id='1191'> -8.0936674e+01 </wgt>
<wgt id='1192'> -8.4076135e+01 </wgt>
<wgt id='1193'> -8.3508130e+01 </wgt>
<wgt id='1194'> -8.7251628e+01 </wgt>
<wgt id='1195'> -8.2926107e+01 </wgt>
<wgt id='1196'> -8.4586009e+01 </wgt>
<wgt id='1197'> -8.5274205e+01 </wgt>
<wgt id='1198'> -8.2731564e+01 </wgt>
<wgt id='1199'> -8.3131892e+01 </wgt>
<wgt id='1200'> -8.5640713e+01 </wgt>
<wgt id='1201'> -8.2003110e+01 </wgt>
<wgt id='1202'> -8.5583844e+01 </wgt>
<wgt id='1203'> -8.0652376e+01 </wgt>
<wgt id='1204'> -8.2976630e+01 </wgt>
<wgt id='1205'> -8.4647736e+01 </wgt>
<wgt id='1206'> -8.3533224e+01 </wgt>
<wgt id='1207'> -8.3308130e+01 </wgt>
<wgt id='1208'> -8.4694288e+01 </wgt>
<wgt id='1209'> -8.1458111e+01 </wgt>
<wgt id='1210'> -8.3695340e+01 </wgt>
<wgt id='1211'> -8.6151355e+01 </wgt>
<wgt id='1212'> -8.3000198e+01 </wgt>
<wgt id='1213'> -8.3913164e+01 </wgt>
<wgt id='1214'> -8.2214999e+01 </wgt>
<wgt id='1215'> -8.0328875e+01 </wgt>
<wgt id='1216'> -8.2594298e+01 </wgt>
<wgt id='1217'> -8.2592635e+01 </wgt>
<wgt id='1218'> -8.2700683e+01 </wgt>
<wgt id='1219'> -8.2565160e+01 </wgt>
<wgt id='1220'> -8.3026692e+01 </wgt>
<wgt id='1221'> -8.2573661e+01 </wgt>
<wgt id='1222'> -8.2457848e+01 </wgt>
<wgt id='1223'> -8.2618367e+01 </wgt>
<wgt id='1224'> -8.2211631e+01 </wgt>
<wgt id='1225'> -8.2720316e+01 </wgt>
<wgt id='1226'> -8.1973138e+01 </wgt>
<wgt id='1227'> -8.2517033e+01 </wgt>
<wgt id='1228'> -8.2685830e+01 </wgt>
<wgt id='1229'> -8.2610617e+01 </wgt>
<wgt id='1230'> -8.3042649e+01 </wgt>
<wgt id='1231'> -8.1964252e+01 </wgt>
<wgt id='1232'> -8.2702259e+01 </wgt>
<wgt id='1233'> -8.2410712e+01 </wgt>
<wgt id='1234'> -8.2798978e+01 </wgt>
<wgt id='1235'> -8.2604135e+01 </wgt>
<wgt id='1236'> -8.2014059e+01 </wgt>
<wgt id='1237'> -8.3207832e+01 </wgt>
<wgt id='1238'> -8.2802181e+01 </wgt>
<wgt id='1239'> -8.2879564e+01 </wgt>
<wgt id='1240'> -8.2774799e+01 </wgt>
<wgt id='1241'> -8.1962263e+01 </wgt>
<wgt id='1242'> -8.2460666e+01 </wgt>
<wgt id='1243'> -8.2891494e+01 </wgt>
<wgt id='1244'> -8.2403939e+01 </wgt>
<wgt id='1245'> -8.3398372e+01 </wgt>
<wgt id='1246'> -8.2664218e+01 </wgt>
<wgt id='1247'> -8.2231300e+01 </wgt>
<wgt id='1248'> -8.2461494e+01 </wgt>
<wgt id='1249'> -8.2748044e+01 </wgt>
<wgt id='1250'> -8.2894494e+01 </wgt>
<wgt id='1251'> -8.2716178e+01 </wgt>
<wgt id='1252'> -8.2684673e+01 </wgt>
<wgt id='1253'> -8.2493678e+01 </wgt>
<wgt id='1254'> -8.2660120e+01 </wgt>
<wgt id='1255'> -8.2455804e+01 </wgt>
<wgt id='1256'> -8.2627846e+01 </wgt>
<wgt id='1257'> -8.2232242e+01 </wgt>
<wgt id='1258'> -8.2707043e+01 </wgt>
<wgt id='1259'> -8.2398382e+01 </wgt>
<wgt id='1260'> -8.2577765e+01 </wgt>
<wgt id='1261'> -8.2722221e+01 </wgt>
<wgt id='1262'> -8.2598218e+01 </wgt>
<wgt id='1263'> -8.2418321e+01 </wgt>
<wgt id='1264'> -8.2627180e+01 </wgt>
<wgt id='1265'> -8.2935725e+01 </wgt>
<wgt id='1266'> -8.2594451e+01 </wgt>
<wgt id='1267'> -8.2520900e+01 </wgt>
<wgt id='1268'> -8.2500056e+01 </wgt>
<wgt id='1269'> -8.2481612e+01 </wgt>
<wgt id='1270'> -8.2689004e+01 </wgt>
<wgt id='1271'> -8.2634131e+01 </wgt>
<wgt id='1272'> -8.2817257e+01 </wgt>
<wgt id='1273'> -8.2555458e+01 </wgt>
<wgt id='1274'> -8.2441215e+01 </wgt>
<wgt id='1275'> -8.2474342e+01 </wgt>
<wgt id='1276'> -8.2687379e+01 </wgt>
<wgt id='1277'> -8.2627511e+01 </wgt>
<wgt id='1278'> -8.2608573e+01 </wgt>
<wgt id='1279'> -8.2547317e+01 </wgt>
<wgt id='1280'> -8.2608841e+01 </wgt>
<wgt id='1281'> -8.2637805e+01 </wgt>
<wgt id='1282'> -8.2453483e+01 </wgt>
<wgt id='1283'> -8.2566692e+01 </wgt>
<wgt id='1284'> -8.2582982e+01 </wgt>
<wgt id='1285'> -8.2457144e+01 </wgt>
<wgt id='1286'> -8.2590959e+01 </wgt>
<wgt id='1287'> -8.2700402e+01 </wgt>
<wgt id='1288'> -8.2621865e+01 </wgt>
<wgt id='1289'> -8.2507924e+01 </wgt>
<wgt id='1290'> -8.2590484e+01 </wgt>
<wgt id='1291'> -8.2555702e+01 </wgt>
<wgt id='1292'> -8.2589758e+01 </wgt>
<wgt id='1293'> -8.2590788e+01 </wgt>
<wgt id='1294'> -8.2557532e+01 </wgt>
<wgt id='1295'> -8.2570048e+01 </wgt>
<wgt id='1296'> -8.2604025e+01 </wgt>
<wgt id='1297'> -8.2552775e+01 </wgt>
<wgt id='1298'> -8.2648749e+01 </wgt>
<wgt id='1299'> -8.2658407e+01 </wgt>
<wgt id='1300'> -8.2590019e+01 </wgt>
<wgt id='1301'> -8.2606787e+01 </wgt>
<wgt id='1302'> -8.2534296e+01 </wgt>
<wgt id='1303'> -8.2588644e+01 </wgt>
<wgt id='1304'> -8.2571993e+01 </wgt>
<wgt id='1305'> -8.2586165e+01 </wgt>
<wgt id='1306'> -8.2612248e+01 </wgt>
<wgt id='1307'> -8.2583380e+01 </wgt>
<wgt id='1308'> -8.2615941e+01 </wgt>
<wgt id='1309'> -8.2604373e+01 </wgt>
<wgt id='1310'> -8.2580750e+01 </wgt>
<wgt id='1311'> -8.2632341e+01 </wgt>
<wgt id='1312'> -8.2614758e+01 </wgt>
<wgt id='1313'> -8.2597055e+01 </wgt>
<wgt id='1314'> -8.2554061e+01 </wgt>
<wgt id='1315'> -8.2628756e+01 </wgt>
<wgt id='1316'> -8.2616542e+01 </wgt>
<wgt id='1317'> -7.7985461e+01 </wgt>
<wgt id='1318'> -8.7710401e+01 </wgt>
<wgt id='1319'> -8.4127835e+01 </wgt>
<wgt id='1320'> -8.0217358e+01 </wgt>
<wgt id='1321'> -8.0165740e+01 </wgt>
<wgt id='1322'> -8.1524686e+01 </wgt>
<wgt id='1323'> -8.0893917e+01 </wgt>
<wgt id='1324'> -8.0669368e+01 </wgt>
<wgt id='1325'> -8.0446517e+01 </wgt>
<wgt id='1326'> -8.0786592e+01 </wgt>
<wgt id='1327'> -7.9735983e+01 </wgt>
<wgt id='1328'> -8.2620098e+01 </wgt>
<wgt id='1329'> -7.8666962e+01 </wgt>
<wgt id='1330'> -8.2191865e+01 </wgt>
<wgt id='1331'> -8.1140213e+01 </wgt>
<wgt id='1332'> -7.9759985e+01 </wgt>
<wgt id='1333'> -7.8585734e+01 </wgt>
<wgt id='1334'> -8.0576667e+01 </wgt>
<wgt id='1335'> -8.1570444e+01 </wgt>
<wgt id='1336'> -7.8184110e+01 </wgt>
<wgt id='1337'> -8.2160412e+01 </wgt>
<wgt id='1338'> -7.8003607e+01 </wgt>
<wgt id='1339'> -8.1033983e+01 </wgt>
<wgt id='1340'> -7.9253817e+01 </wgt>
<wgt id='1341'> -8.0562770e+01 </wgt>
<wgt id='1342'> -7.9467386e+01 </wgt>
<wgt id='1343'> -8.0894704e+01 </wgt>
<wgt id='1344'> -7.9380617e+01 </wgt>
<wgt id='1345'> -8.0297910e+01 </wgt>
<wgt id='1346'> -8.0263617e+01 </wgt>
<wgt id='1347'> -7.9942757e+01 </wgt>
<wgt id='1348'> -8.0528362e+01 </wgt>
<wgt id='1349'> -7.9344403e+01 </wgt>
<wgt id='1350'> -8.0513010e+01 </wgt>
<wgt id='1351'> -7.9884806e+01 </wgt>
<wgt id='1352'> -8.0638363e+01 </wgt>
<wgt id='1353'> -8.0386126e+01 </wgt>
<wgt id='1354'> -7.9832858e+01 </wgt>
<wgt id='1355'> -7.9295046e+01 </wgt>
<wgt id='1356'> -8.1278462e+01 </wgt>
<wgt id='1357'> -8.0527878e+01 </wgt>
<wgt id='1358'> -7.9267571e+01 </wgt>
<wgt id='1359'> -7.9107191e+01 </wgt>
<wgt id='1360'> -8.0466298e+01 </wgt>
<wgt id='1361'> -8.1489148e+01 </wgt>
<wgt id='1362'> -7.8942250e+01 </wgt>
<wgt id='1363'> -8.0749986e+01 </wgt>
<wgt id='1364'> -7.9340425e+01 </wgt>
<wgt id='1365'> -7.9831970e+01 </wgt>
<wgt id='1366'> -7.9671522e+01 </wgt>
<wgt id='1367'> -7.9902878e+01 </wgt>
<wgt id='1368'> -7.9858977e+01 </wgt>
<wgt id='1369'> -8.0399587e+01 </wgt>
<wgt id='1370'> -7.9346891e+01 </wgt>
<wgt id='1371'> -7.8714956e+01 </wgt>
<wgt id='1372'> -7.9704678e+01 </wgt>
<wgt id='1373'> -8.0021088e+01 </wgt>
<wgt id='1374'> -7.9719313e+01 </wgt>
<wgt id='1375'> -7.7942553e+01 </wgt>
<wgt id='1376'> -8.2766677e+01 </wgt>
<wgt id='1377'> -7.5419721e+01 </wgt>
<wgt id='1378'> -8.5186717e+01 </wgt>
<wgt id='1379'> -8.4385145e+01 </wgt>
<wgt id='1380'> -7.9248649e+01 </wgt>
<wgt id='1381'> -8.9839312e+01 </wgt>
<wgt id='1382'> -7.2590419e+01 </wgt>
<wgt id='1383'> -7.7026317e+01 </wgt>
<wgt id='1384'> -8.2842249e+01 </wgt>
<wgt id='1385'> -9.4516599e+01 </wgt>
<wgt id='1386'> -9.4739905e+01 </wgt>
<wgt id='1387'> -9.4270454e+01 </wgt>
<wgt id='1388'> -9.4087532e+01 </wgt>
<wgt id='1389'> -9.5252609e+01 </wgt>
<wgt id='1390'> -9.5077832e+01 </wgt>
<wgt id='1391'> -9.3859285e+01 </wgt>
<wgt id='1392'> -9.4566041e+01 </wgt>
<wgt id='1393'> -9.4492267e+01 </wgt>
<wgt id='1394'> -9.4426917e+01 </wgt>
<wgt id='1395'> -9.4627724e+01 </wgt>
<wgt id='1396'> -9.4255868e+01 </wgt>
<wgt id='1397'> -9.4647184e+01 </wgt>
<wgt id='1398'> -9.4228800e+01 </wgt>
<wgt id='1399'> -9.4717407e+01 </wgt>
<wgt id='1400'> -9.5042563e+01 </wgt>
<wgt id='1401'> -9.4099573e+01 </wgt>
<wgt id='1402'> -9.5077777e+01 </wgt>
<wgt id='1403'> -9.4259567e+01 </wgt>
<wgt id='1404'> -9.2941187e+01 </wgt>
<wgt id='1405'> -9.5295052e+01 </wgt>
<wgt id='1406'> -9.3799028e+01 </wgt>
<wgt id='1407'> -9.5799618e+01 </wgt>
<wgt id='1408'> -9.4203383e+01 </wgt>
<wgt id='1409'> -9.5143343e+01 </wgt>
<wgt id='1410'> -9.4656118e+01 </wgt>
<wgt id='1411'> -9.4131107e+01 </wgt>
<wgt id='1412'> -9.5102306e+01 </wgt>
<wgt id='1413'> -9.3582934e+01 </wgt>
<wgt id='1414'> -9.4993061e+01 </wgt>
<wgt id='1415'> -9.4226185e+01 </wgt>
<wgt id='1416'> -9.4801640e+01 </wgt>
<wgt id='1417'> -9.4397868e+01 </wgt>
<wgt id='1418'> -9.4119611e+01 </wgt>
<wgt id='1419'> -9.5352482e+01 </wgt>
<wgt id='1420'> -9.4015048e+01 </wgt>
<wgt id='1421'> -9.4611512e+01 </wgt>
<wgt id='1422'> -9.4712938e+01 </wgt>
<wgt id='1423'> -9.4345629e+01 </wgt>
<wgt id='1424'> -9.4964887e+01 </wgt>
<wgt id='1425'> -9.3604329e+01 </wgt>
<wgt id='1426'> -9.5371679e+01 </wgt>
<wgt id='1427'> -9.5013623e+01 </wgt>
<wgt id='1428'> -9.4005082e+01 </wgt>
<wgt id='1429'> -9.3670933e+01 </wgt>
<wgt id='1430'> -9.5289065e+01 </wgt>
<wgt id='1431'> -9.5387946e+01 </wgt>
<wgt id='1432'> -9.5340124e+01 </wgt>
<wgt id='1433'> -9.5612819e+01 </wgt>
<wgt id='1434'> -9.4414750e+01 </wgt>
<wgt id='1435'> -9.4950372e+01 </wgt>
<wgt id='1436'> -6.5000075e+01 </wgt>
<wgt id='1437'> -6.5111733e+01 </wgt>
<wgt id='1438'> -6.4781497e+01 </wgt>
<wgt id='1439'> -6.5000736e+01 </wgt>
<wgt id='1440'> -6.5035668e+01 </wgt>
<wgt id='1441'> -6.5390305e+01 </wgt>
<wgt id='1442'> -6.4714871e+01 </wgt>
<wgt id='1443'> -6.5283938e+01 </wgt>
<wgt id='1444'> -6.4570133e+01 </wgt>
<wgt id='1445'> -6.4063862e+01 </wgt>
<wgt id='1446'> -6.5384770e+01 </wgt>
<wgt id='1447'> -6.5053958e+01 </wgt>
<wgt id='1448'> -6.4681982e+01 </wgt>
<wgt id='1449'> -6.5211284e+01 </wgt>
<wgt id='1450'> -6.5078487e+01 </wgt>
<wgt id='1451'> -6.5121118e+01 </wgt>
<wgt id='1452'> -6.4554688e+01 </wgt>
<wgt id='1453'> -6.5003840e+01 </wgt>
<wgt id='1454'> -6.5257353e+01 </wgt>
<wgt id='1455'> -6.4619296e+01 </wgt>
<wgt id='1456'> -6.5004185e+01 </wgt>
<wgt id='1457'> -6.5348393e+01 </wgt>
<wgt id='1458'> -6.5558844e+01 </wgt>
<wgt id='1459'> -6.5561545e+01 </wgt>
<wgt id='1460'> -6.5035362e+01 </wgt>
<wgt id='1461'> -6.5836546e+01 </wgt>
<wgt id='1462'> -6.4864196e+01 </wgt>
<wgt id='1463'> -6.5119608e+01 </wgt>
<wgt id='1464'> -6.4157518e+01 </wgt>
<wgt id='1465'> -8.5420234e+01 </wgt>
<wgt id='1466'> -7.7525194e+01 </wgt>
<wgt id='1467'> -7.7282540e+01 </wgt>
<wgt id='1468'> -7.6967007e+01 </wgt>
<wgt id='1469'> -7.8935943e+01 </wgt>
<wgt id='1470'> -7.7215169e+01 </wgt>
<wgt id='1471'> -7.7573968e+01 </wgt>
<wgt id='1472'> -7.6614103e+01 </wgt>
<wgt id='1473'> -7.8266070e+01 </wgt>
<wgt id='1474'> -7.8239150e+01 </wgt>
<wgt id='1475'> -7.6880348e+01 </wgt>
<wgt id='1476'> -7.6958167e+01 </wgt>
<wgt id='1477'> -7.6933597e+01 </wgt>
<wgt id='1478'> -7.7213609e+01 </wgt>
<wgt id='1479'> -7.8361345e+01 </wgt>
<wgt id='1480'> -7.7557297e+01 </wgt>
<wgt id='1481'> -7.7248680e+01 </wgt>
<wgt id='1482'> -7.7307398e+01 </wgt>
<wgt id='1483'> -7.7497422e+01 </wgt>
<wgt id='1484'> -7.8348459e+01 </wgt>
<wgt id='1485'> -7.7148265e+01 </wgt>
<wgt id='1486'> -7.7740422e+01 </wgt>
<wgt id='1487'> -7.7033906e+01 </wgt>
<wgt id='1488'> -7.6826207e+01 </wgt>
<wgt id='1489'> -7.7801024e+01 </wgt>
<wgt id='1490'> -7.7598065e+01 </wgt>
<wgt id='1491'> -7.7628982e+01 </wgt>
<wgt id='1492'> -7.7349825e+01 </wgt>
<wgt id='1493'> -7.7518909e+01 </wgt>
<wgt id='1494'> -7.7377921e+01 </wgt>
<wgt id='1495'> -7.7422052e+01 </wgt>
<wgt id='1496'> -7.7343206e+01 </wgt>
<wgt id='1497'> -7.7616507e+01 </wgt>
<wgt id='1498'> -7.7050894e+01 </wgt>
<wgt id='1499'> -7.6975072e+01 </wgt>
<wgt id='1500'> -7.7812715e+01 </wgt>
<wgt id='1501'> -7.7678545e+01 </wgt>
<wgt id='1502'> -7.7403766e+01 </wgt>
<wgt id='1503'> -7.7436024e+01 </wgt>
<wgt id='1504'> -7.7604202e+01 </wgt>
<wgt id='1505'> -7.7735582e+01 </wgt>
<wgt id='1506'> -7.7435331e+01 </wgt>
<wgt id='1507'> -7.7592895e+01 </wgt>
<wgt id='1508'> -7.7480409e+01 </wgt>
<wgt id='1509'> -7.7518827e+01 </wgt>
<wgt id='1510'> -7.7545639e+01 </wgt>
<wgt id='1511'> -7.7594840e+01 </wgt>
<wgt id='1512'> -7.7584995e+01 </wgt>
<wgt id='1513'> -7.7348802e+01 </wgt>
<wgt id='1514'> -7.7584709e+01 </wgt>
<wgt id='1515'> -7.7506562e+01 </wgt>
<wgt id='1516'> -7.7570208e+01 </wgt>
<wgt id='1517'> -7.7487094e+01 </wgt>
<wgt id='1518'> -7.7623480e+01 </wgt>
<wgt id='1519'> -7.7533656e+01 </wgt>
<wgt id='1520'> -7.7481322e+01 </wgt>
<wgt id='1521'> -7.7628220e+01 </wgt>
<wgt id='1522'> -7.7475334e+01 </wgt>
<wgt id='1523'> -7.7535885e+01 </wgt>
<wgt id='1524'> -7.7634543e+01 </wgt>
<wgt id='1525'> -7.7568576e+01 </wgt>
<wgt id='1526'> -7.7456421e+01 </wgt>
<wgt id='1527'> -7.7558179e+01 </wgt>
<wgt id='1528'> -7.7544468e+01 </wgt>
<wgt id='1529'> -7.7518014e+01 </wgt>
<wgt id='1530'> -7.7591024e+01 </wgt>
<wgt id='1531'> -7.7529310e+01 </wgt>
<wgt id='1532'> -7.7591651e+01 </wgt>
<wgt id='1533'> -7.7576737e+01 </wgt>
<wgt id='1534'> -7.7550724e+01 </wgt>
<wgt id='1535'> -7.7559803e+01 </wgt>
<wgt id='1536'> -7.7484003e+01 </wgt>
<wgt id='1537'> -7.7483743e+01 </wgt>
<wgt id='1538'> -7.7589926e+01 </wgt>
<wgt id='1539'> -7.7543652e+01 </wgt>
<wgt id='1540'> -7.7535326e+01 </wgt>
<wgt id='1541'> -7.7507077e+01 </wgt>
<wgt id='1542'> -7.7550875e+01 </wgt>
<wgt id='1543'> -7.7562000e+01 </wgt>
<wgt id='1544'> -7.7507425e+01 </wgt>
<wgt id='1545'> -7.7533848e+01 </wgt>
<wgt id='1546'> -7.7533286e+01 </wgt>
<wgt id='1547'> -7.7543448e+01 </wgt>
<wgt id='1548'> -7.7503063e+01 </wgt>
<wgt id='1549'> -7.7523248e+01 </wgt>
<wgt id='1550'> -7.7508713e+01 </wgt>
<wgt id='1551'> -7.7521476e+01 </wgt>
<wgt id='1552'> -7.7524325e+01 </wgt>
<wgt id='1553'> -7.7543347e+01 </wgt>
<wgt id='1554'> -7.7549895e+01 </wgt>
<wgt id='1555'> -7.7517776e+01 </wgt>
<wgt id='1556'> -7.7519787e+01 </wgt>
<wgt id='1557'> -7.7521090e+01 </wgt>
<wgt id='1558'> -7.7493622e+01 </wgt>
<wgt id='1559'> -7.7504312e+01 </wgt>
<wgt id='1560'> -7.7521997e+01 </wgt>
<wgt id='1561'> -7.7526496e+01 </wgt>
<wgt id='1562'> -7.7494119e+01 </wgt>
<wgt id='1563'> -7.7572599e+01 </wgt>
<wgt id='1564'> -7.7532788e+01 </wgt>
<wgt id='1565'> -7.7522642e+01 </wgt>
<wgt id='1566'> -7.7525014e+01 </wgt>
<wgt id='1567'> -7.3900718e+01 </wgt>
<wgt id='1568'> -8.1329222e+01 </wgt>
<wgt id='1569'> -8.2488509e+01 </wgt>
<wgt id='1570'> -8.3022925e+01 </wgt>
<wgt id='1571'> -8.1920328e+01 </wgt>
<wgt id='1572'> -8.3194768e+01 </wgt>
<wgt id='1573'> -8.3494522e+01 </wgt>
<wgt id='1574'> -8.3522651e+01 </wgt>
<wgt id='1575'> -8.3001793e+01 </wgt>
<wgt id='1576'> -8.2485345e+01 </wgt>
<wgt id='1577'> -8.2560194e+01 </wgt>
<wgt id='1578'> -8.2764151e+01 </wgt>
<wgt id='1579'> -8.2707890e+01 </wgt>
<wgt id='1580'> -8.2998811e+01 </wgt>
<wgt id='1581'> -8.2105545e+01 </wgt>
<wgt id='1582'> -8.2834986e+01 </wgt>
<wgt id='1583'> -8.1827933e+01 </wgt>
<wgt id='1584'> -8.2304513e+01 </wgt>
<wgt id='1585'> -8.2101722e+01 </wgt>
<wgt id='1586'> -8.2623659e+01 </wgt>
<wgt id='1587'> -8.2921682e+01 </wgt>
<wgt id='1588'> -8.1102947e+01 </wgt>
<wgt id='1589'> -8.2746145e+01 </wgt>
<wgt id='1590'> -8.2705032e+01 </wgt>
<wgt id='1591'> -8.2296867e+01 </wgt>
<wgt id='1592'> -8.2664376e+01 </wgt>
<wgt id='1593'> -8.2845424e+01 </wgt>
<wgt id='1594'> -8.2745620e+01 </wgt>
<wgt id='1595'> -8.2330245e+01 </wgt>
<wgt id='1596'> -8.2341001e+01 </wgt>
<wgt id='1597'> -8.2803628e+01 </wgt>
<wgt id='1598'> -8.2919316e+01 </wgt>
<wgt id='1599'> -8.2775194e+01 </wgt>
<wgt id='1600'> -8.2900350e+01 </wgt>
<wgt id='1601'> -8.2821205e+01 </wgt>
<wgt id='1602'> -8.3070709e+01 </wgt>
<wgt id='1603'> -8.2801644e+01 </wgt>
<wgt id='1604'> -8.2675936e+01 </wgt>
<wgt id='1605'> -8.2728206e+01 </wgt>
<wgt id='1606'> -8.2306313e+01 </wgt>
<wgt id='1607'> -8.2303605e+01 </wgt>
<wgt id='1608'> -8.2724517e+01 </wgt>
<wgt id='1609'> -8.2372584e+01 </wgt>
<wgt id='1610'> -8.2531059e+01 </wgt>
<wgt id='1611'> -8.2508636e+01 </wgt>
<wgt id='1612'> -8.2492295e+01 </wgt>
<wgt id='1613'> -8.2382835e+01 </wgt>
<wgt id='1614'> -8.2403398e+01 </wgt>
<wgt id='1615'> -8.2267763e+01 </wgt>
<wgt id='1616'> -8.2457374e+01 </wgt>
<wgt id='1617'> -8.2502870e+01 </wgt>
<wgt id='1618'> -8.2535342e+01 </wgt>
<wgt id='1619'> -8.2484818e+01 </wgt>
<wgt id='1620'> -8.2397659e+01 </wgt>
<wgt id='1621'> -8.2466469e+01 </wgt>
<wgt id='1622'> -8.2543480e+01 </wgt>
<wgt id='1623'> -8.2383098e+01 </wgt>
<wgt id='1624'> -8.2542702e+01 </wgt>
<wgt id='1625'> -8.2590215e+01 </wgt>
<wgt id='1626'> -8.2552570e+01 </wgt>
<wgt id='1627'> -8.2477445e+01 </wgt>
<wgt id='1628'> -8.2404895e+01 </wgt>
<wgt id='1629'> -8.2502749e+01 </wgt>
<wgt id='1630'> -8.2519241e+01 </wgt>
<wgt id='1631'> -8.2482381e+01 </wgt>
<wgt id='1632'> -8.2533684e+01 </wgt>
<wgt id='1633'> -8.2531449e+01 </wgt>
<wgt id='1634'> -8.2429493e+01 </wgt>
<wgt id='1635'> -8.2467103e+01 </wgt>
<wgt id='1636'> -8.2480968e+01 </wgt>
<wgt id='1637'> -8.2557567e+01 </wgt>
<wgt id='1638'> -8.2488800e+01 </wgt>
<wgt id='1639'> -8.2475465e+01 </wgt>
<wgt id='1640'> -8.2484697e+01 </wgt>
<wgt id='1641'> -8.2510648e+01 </wgt>
<wgt id='1642'> -8.2442829e+01 </wgt>
<wgt id='1643'> -8.2497637e+01 </wgt>
<wgt id='1644'> -8.2509836e+01 </wgt>
<wgt id='1645'> -8.2524192e+01 </wgt>
<wgt id='1646'> -8.2453094e+01 </wgt>
<wgt id='1647'> -8.2479932e+01 </wgt>
<wgt id='1648'> -8.2451171e+01 </wgt>
<wgt id='1649'> -8.2533084e+01 </wgt>
<wgt id='1650'> -8.2484068e+01 </wgt>
<wgt id='1651'> -8.2511472e+01 </wgt>
<wgt id='1652'> -8.2471523e+01 </wgt>
<wgt id='1653'> -8.2450926e+01 </wgt>
<wgt id='1654'> -8.2492032e+01 </wgt>
<wgt id='1655'> -8.2479929e+01 </wgt>
<wgt id='1656'> -8.2465041e+01 </wgt>
<wgt id='1657'> -8.2453005e+01 </wgt>
<wgt id='1658'> -8.2451824e+01 </wgt>
<wgt id='1659'> -8.2476705e+01 </wgt>
<wgt id='1660'> -8.2536022e+01 </wgt>
<wgt id='1661'> -8.2474084e+01 </wgt>
<wgt id='1662'> -8.2519683e+01 </wgt>
<wgt id='1663'> -8.2463943e+01 </wgt>
<wgt id='1664'> -8.2484178e+01 </wgt>
<wgt id='1665'> -8.2503422e+01 </wgt>
<wgt id='1666'> -8.2504025e+01 </wgt>
<wgt id='1667'> -8.2503901e+01 </wgt>
<wgt id='1668'> -8.2470856e+01 </wgt>
<wgt id='1669'> -8.2485842e+01 </wgt>
<wgt id='1670'> -7.8448986e+01 </wgt>
<wgt id='1671'> -8.6553017e+01 </wgt>
<wgt id='1672'> -7.7659678e+01 </wgt>
<wgt id='1673'> -7.7134387e+01 </wgt>
<wgt id='1674'> -7.6798791e+01 </wgt>
<wgt id='1675'> -7.7683464e+01 </wgt>
<wgt id='1676'> -8.0087285e+01 </wgt>
<wgt id='1677'> -7.8171337e+01 </wgt>
<wgt id='1678'> -7.7331024e+01 </wgt>
<wgt id='1679'> -7.7707163e+01 </wgt>
<wgt id='1680'> -7.7762469e+01 </wgt>
<wgt id='1681'> -7.7921525e+01 </wgt>
<wgt id='1682'> -7.7648655e+01 </wgt>
<wgt id='1683'> -7.6947720e+01 </wgt>
<wgt id='1684'> -7.7891970e+01 </wgt>
<wgt id='1685'> -7.7622837e+01 </wgt>
<wgt id='1686'> -7.7405502e+01 </wgt>
<wgt id='1687'> -7.7794817e+01 </wgt>
<wgt id='1688'> -7.7764449e+01 </wgt>
<wgt id='1689'> -7.7269799e+01 </wgt>
<wgt id='1690'> -7.7752156e+01 </wgt>
<wgt id='1691'> -7.7769246e+01 </wgt>
<wgt id='1692'> -7.8097255e+01 </wgt>
<wgt id='1693'> -7.7493982e+01 </wgt>
<wgt id='1694'> -7.7527203e+01 </wgt>
<wgt id='1695'> -7.7711423e+01 </wgt>
<wgt id='1696'> -7.7472064e+01 </wgt>
<wgt id='1697'> -7.7717783e+01 </wgt>
<wgt id='1698'> -7.7702283e+01 </wgt>
<wgt id='1699'> -7.7770575e+01 </wgt>
<wgt id='1700'> -7.7590976e+01 </wgt>
<wgt id='1701'> -7.7384483e+01 </wgt>
<wgt id='1702'> -7.7749483e+01 </wgt>
<wgt id='1703'> -7.3900718e+01 </wgt>
<wgt id='1704'> -8.1329222e+01 </wgt>
<wgt id='1705'> -8.2501101e+01 </wgt>
<wgt id='1706'> -8.2637313e+01 </wgt>
<wgt id='1707'> -8.2865249e+01 </wgt>
<wgt id='1708'> -8.2548814e+01 </wgt>
<wgt id='1709'> -8.0171339e+01 </wgt>
<wgt id='1710'> -8.2074184e+01 </wgt>
<wgt id='1711'> -8.2540672e+01 </wgt>
<wgt id='1712'> -8.2391160e+01 </wgt>
<wgt id='1713'> -8.2579113e+01 </wgt>
<wgt id='1714'> -8.2043836e+01 </wgt>
<wgt id='1715'> -8.2433458e+01 </wgt>
<wgt id='1716'> -8.2483667e+01 </wgt>
<wgt id='1717'> -8.2526254e+01 </wgt>
<wgt id='1718'> -8.2622639e+01 </wgt>
<wgt id='1719'> -8.2420301e+01 </wgt>
<wgt id='1720'> -8.2653806e+01 </wgt>
<wgt id='1721'> -8.2444215e+01 </wgt>
<wgt id='1722'> -8.2375882e+01 </wgt>
<wgt id='1723'> -8.2512238e+01 </wgt>
<wgt id='1724'> -8.2584913e+01 </wgt>
<wgt id='1725'> -8.1336109e+01 </wgt>
<wgt id='1726'> -8.2594561e+01 </wgt>
<wgt id='1727'> -8.2934422e+01 </wgt>
<wgt id='1728'> -8.2534733e+01 </wgt>
<wgt id='1729'> -8.2518193e+01 </wgt>
<wgt id='1730'> -8.2531391e+01 </wgt>
<wgt id='1731'> -8.2526687e+01 </wgt>
<wgt id='1732'> -8.2650670e+01 </wgt>
<wgt id='1733'> -8.2560682e+01 </wgt>
<wgt id='1734'> -8.2317709e+01 </wgt>
<wgt id='1735'> -8.3097372e+01 </wgt>
<wgt id='1736'> -7.8448986e+01 </wgt>
<wgt id='1737'> -8.6553017e+01 </wgt>
<wgt id='1738'> -8.9477618e+01 </wgt>
<wgt id='1739'> -8.9687263e+01 </wgt>
<wgt id='1740'> -8.9269394e+01 </wgt>
<wgt id='1741'> -8.9422117e+01 </wgt>
<wgt id='1742'> -8.9532851e+01 </wgt>
<wgt id='1743'> -8.9624950e+01 </wgt>
<wgt id='1744'> -8.9329911e+01 </wgt>
<wgt id='1745'> -8.9141621e+01 </wgt>
<wgt id='1746'> -8.9801314e+01 </wgt>
<wgt id='1747'> -8.9802055e+01 </wgt>
<wgt id='1748'> -8.9151592e+01 </wgt>
<wgt id='1749'> -8.9771779e+01 </wgt>
<wgt id='1750'> -8.9161965e+01 </wgt>
<wgt id='1751'> -8.9362684e+01 </wgt>
<wgt id='1752'> -8.9587456e+01 </wgt>
<wgt id='1753'> -8.9317034e+01 </wgt>
<wgt id='1754'> -8.9644519e+01 </wgt>
<wgt id='1755'> -8.9315614e+01 </wgt>
<wgt id='1756'> -8.9534548e+01 </wgt>
<wgt id='1757'> -8.9293290e+01 </wgt>
<wgt id='1758'> -8.9686960e+01 </wgt>
<wgt id='1759'> -8.9842983e+01 </wgt>
<wgt id='1760'> -8.9019294e+01 </wgt>
<wgt id='1761'> -8.8987476e+01 </wgt>
<wgt id='1762'> -8.9638868e+01 </wgt>
<wgt id='1763'> -8.9736100e+01 </wgt>
<wgt id='1764'> -8.9335689e+01 </wgt>
<wgt id='1765'> -8.8885890e+01 </wgt>
<wgt id='1766'> -8.9986513e+01 </wgt>
<wgt id='1767'> -8.9477618e+01 </wgt>
<wgt id='1768'> -9.0890029e+01 </wgt>
<wgt id='1769'> -8.7760690e+01 </wgt>
<wgt id='1770'> -9.1101636e+01 </wgt>
<wgt id='1771'> -8.8295749e+01 </wgt>
<wgt id='1772'> -8.9777569e+01 </wgt>
<wgt id='1773'> -8.9126511e+01 </wgt>
<wgt id='1774'> -8.9291410e+01 </wgt>
<wgt id='1775'> -8.9667381e+01 </wgt>
<wgt id='1776'> -8.8531048e+01 </wgt>
<wgt id='1777'> -9.0425667e+01 </wgt>
<wgt id='1778'> -8.9504406e+01 </wgt>
<wgt id='1779'> -9.0431066e+01 </wgt>
<wgt id='1780'> -8.8068183e+01 </wgt>
<wgt id='1781'> -9.1633082e+01 </wgt>
<wgt id='1782'> -9.1869303e+01 </wgt>
<wgt id='1783'> -9.1430356e+01 </wgt>
<wgt id='1784'> -9.1529232e+01 </wgt>
<wgt id='1785'> -9.1769354e+01 </wgt>
<wgt id='1786'> -9.1764815e+01 </wgt>
<wgt id='1787'> -9.1533369e+01 </wgt>
<wgt id='1788'> -9.1234784e+01 </wgt>
<wgt id='1789'> -9.2044918e+01 </wgt>
<wgt id='1790'> -9.1956551e+01 </wgt>
<wgt id='1791'> -9.1335306e+01 </wgt>
<wgt id='1792'> -9.1623488e+01 </wgt>
<wgt id='1793'> -9.1673965e+01 </wgt>
<wgt id='1794'> -9.1429960e+01 </wgt>
<wgt id='1795'> -9.1870159e+01 </wgt>
<wgt id='1796'> -9.1581920e+01 </wgt>
<wgt id='1797'> -9.1777134e+01 </wgt>
<wgt id='1798'> -9.1587949e+01 </wgt>
<wgt id='1799'> -9.1690958e+01 </wgt>
<wgt id='1800'> -9.1729561e+01 </wgt>
<wgt id='1801'> -9.1561906e+01 </wgt>
<wgt id='1802'> -9.0901563e+01 </wgt>
<wgt id='1803'> -9.2293079e+01 </wgt>
<wgt id='1804'> -9.1511274e+01 </wgt>
<wgt id='1805'> -9.1802942e+01 </wgt>
<wgt id='1806'> -9.1306324e+01 </wgt>
<wgt id='1807'> -9.1818083e+01 </wgt>
<wgt id='1808'> -9.1385183e+01 </wgt>
<wgt id='1809'> -9.1863436e+01 </wgt>
<wgt id='1810'> -9.1367362e+01 </wgt>
<wgt id='1811'> -9.2950292e+01 </wgt>
<wgt id='1812'> -8.9241175e+01 </wgt>
<wgt id='1813'> -9.3191311e+01 </wgt>
<wgt id='1814'> -9.0050276e+01 </wgt>
<wgt id='1815'> -9.1079212e+01 </wgt>
<wgt id='1816'> -9.0918857e+01 </wgt>
<wgt id='1817'> -9.1200503e+01 </wgt>
<wgt id='1818'> -9.1733942e+01 </wgt>
<wgt id='1819'> -8.9789234e+01 </wgt>
<wgt id='1820'> -9.1925703e+01 </wgt>
<wgt id='1821'> -9.0398056e+01 </wgt>
<wgt id='1822'> -9.3044970e+01 </wgt>
<wgt id='1823'> -9.0215544e+01 </wgt>
<wgt id='1824'> -7.9511455e+01 </wgt>
<wgt id='1825'> -7.9482449e+01 </wgt>
<wgt id='1826'> -7.9452903e+01 </wgt>
<wgt id='1827'> -7.9423829e+01 </wgt>
<wgt id='1828'> -7.9394611e+01 </wgt>
<wgt id='1829'> -7.9365214e+01 </wgt>
<wgt id='1830'> -7.9336239e+01 </wgt>
<wgt id='1831'> -7.9306940e+01 </wgt>
<wgt id='1832'> -7.9277639e+01 </wgt>
<wgt id='1833'> -7.9248595e+01 </wgt>
<wgt id='1834'> -7.9219090e+01 </wgt>
<wgt id='1835'> -7.9190058e+01 </wgt>
<wgt id='1836'> -7.9161085e+01 </wgt>
<wgt id='1837'> -7.9131559e+01 </wgt>
<wgt id='1838'> -7.9102591e+01 </wgt>
<wgt id='1839'> -7.9073287e+01 </wgt>
<wgt id='1840'> -7.9044092e+01 </wgt>
<wgt id='1841'> -7.9015175e+01 </wgt>
<wgt id='1842'> -7.8985614e+01 </wgt>
<wgt id='1843'> -7.8956707e+01 </wgt>
<wgt id='1844'> -7.8927715e+01 </wgt>
<wgt id='1845'> -7.8898233e+01 </wgt>
<wgt id='1846'> -7.8869293e+01 </wgt>
<wgt id='1847'> -7.8840057e+01 </wgt>
<wgt id='1848'> -7.8810896e+01 </wgt>
<wgt id='1849'> -7.8782004e+01 </wgt>
<wgt id='1850'> -7.8752546e+01 </wgt>
<wgt id='1851'> -7.8723597e+01 </wgt>
<wgt id='1852'> -7.8694570e+01 </wgt>
<wgt id='1853'> -7.8665254e+01 </wgt>
<wgt id='1854'> -7.8636327e+01 </wgt>
<wgt id='1855'> -8.2176942e+01 </wgt>
<wgt id='1856'> -8.2685278e+01 </wgt>
<wgt id='1857'> -8.1604550e+01 </wgt>
<wgt id='1858'> -8.2881693e+01 </wgt>
<wgt id='1859'> -8.3173556e+01 </wgt>
<wgt id='1860'> -8.3205729e+01 </wgt>
<wgt id='1861'> -8.2705427e+01 </wgt>
<wgt id='1862'> -8.2190552e+01 </wgt>
<wgt id='1863'> -8.2249768e+01 </wgt>
<wgt id='1864'> -8.2453271e+01 </wgt>
<wgt id='1865'> -8.2391265e+01 </wgt>
<wgt id='1866'> -8.2709058e+01 </wgt>
<wgt id='1867'> -8.1806878e+01 </wgt>
<wgt id='1868'> -8.2531986e+01 </wgt>
<wgt id='1869'> -8.1517187e+01 </wgt>
<wgt id='1870'> -8.1961598e+01 </wgt>
<wgt id='1871'> -8.1815838e+01 </wgt>
<wgt id='1872'> -8.2300849e+01 </wgt>
<wgt id='1873'> -8.2603062e+01 </wgt>
<wgt id='1874'> -8.0810500e+01 </wgt>
<wgt id='1875'> -8.2451473e+01 </wgt>
<wgt id='1876'> -8.2384176e+01 </wgt>
<wgt id='1877'> -8.1981486e+01 </wgt>
<wgt id='1878'> -8.2361392e+01 </wgt>
<wgt id='1879'> -8.2524472e+01 </wgt>
<wgt id='1880'> -8.2415562e+01 </wgt>
<wgt id='1881'> -8.2002136e+01 </wgt>
<wgt id='1882'> -8.2049995e+01 </wgt>
<wgt id='1883'> -8.2498575e+01 </wgt>
<wgt id='1884'> -8.2596708e+01 </wgt>
<wgt id='1885'> -8.2453920e+01 </wgt>
<wgt id='1886'> -8.2608666e+01 </wgt>
<wgt id='1887'> -8.2501020e+01 </wgt>
<wgt id='1888'> -8.2750911e+01 </wgt>
<wgt id='1889'> -8.2489626e+01 </wgt>
<wgt id='1890'> -8.2358331e+01 </wgt>
<wgt id='1891'> -8.2418710e+01 </wgt>
<wgt id='1892'> -8.1995507e+01 </wgt>
<wgt id='1893'> -8.1989642e+01 </wgt>
<wgt id='1894'> -8.2404525e+01 </wgt>
<wgt id='1895'> -8.2060602e+01 </wgt>
<wgt id='1896'> -8.2215837e+01 </wgt>
<wgt id='1897'> -8.2194453e+01 </wgt>
<wgt id='1898'> -8.2190800e+01 </wgt>
<wgt id='1899'> -8.2070444e+01 </wgt>
<wgt id='1900'> -8.2090147e+01 </wgt>
<wgt id='1901'> -8.1962617e+01 </wgt>
<wgt id='1902'> -8.2142876e+01 </wgt>
<wgt id='1903'> -8.2195438e+01 </wgt>
<wgt id='1904'> -8.2220647e+01 </wgt>
<wgt id='1905'> -8.2175244e+01 </wgt>
<wgt id='1906'> -8.2084853e+01 </wgt>
<wgt id='1907'> -8.2154830e+01 </wgt>
<wgt id='1908'> -8.2232194e+01 </wgt>
<wgt id='1909'> -8.2074147e+01 </wgt>
<wgt id='1910'> -8.2233666e+01 </wgt>
<wgt id='1911'> -8.2271584e+01 </wgt>
<wgt id='1912'> -8.2241849e+01 </wgt>
<wgt id='1913'> -8.2171298e+01 </wgt>
<wgt id='1914'> -8.2097383e+01 </wgt>
<wgt id='1915'> -8.2194433e+01 </wgt>
<wgt id='1916'> -8.2208895e+01 </wgt>
<wgt id='1917'> -8.2168010e+01 </wgt>
<wgt id='1918'> -8.2219296e+01 </wgt>
<wgt id='1919'> -8.2220709e+01 </wgt>
<wgt id='1920'> -8.2116829e+01 </wgt>
<wgt id='1921'> -8.2155069e+01 </wgt>
<wgt id='1922'> -8.2166672e+01 </wgt>
<wgt id='1923'> -8.2246000e+01 </wgt>
<wgt id='1924'> -8.2174561e+01 </wgt>
<wgt id='1925'> -8.2163000e+01 </wgt>
<wgt id='1926'> -8.2174184e+01 </wgt>
<wgt id='1927'> -8.2197451e+01 </wgt>
<wgt id='1928'> -8.2130007e+01 </wgt>
<wgt id='1929'> -8.2185279e+01 </wgt>
<wgt id='1930'> -8.2198252e+01 </wgt>
<wgt id='1931'> -8.2215649e+01 </wgt>
<wgt id='1932'> -8.2142183e+01 </wgt>
<wgt id='1933'> -8.2170851e+01 </wgt>
<wgt id='1934'> -8.2139666e+01 </wgt>
<wgt id='1935'> -8.2218557e+01 </wgt>
<wgt id='1936'> -8.2176351e+01 </wgt>
<wgt id='1937'> -8.2200975e+01 </wgt>
<wgt id='1938'> -8.2160519e+01 </wgt>
<wgt id='1939'> -8.2138203e+01 </wgt>
<wgt id='1940'> -8.2181883e+01 </wgt>
<wgt id='1941'> -8.2173574e+01 </wgt>
<wgt id='1942'> -8.2151722e+01 </wgt>
<wgt id='1943'> -8.2140073e+01 </wgt>
<wgt id='1944'> -8.2138604e+01 </wgt>
<wgt id='1945'> -8.2164544e+01 </wgt>
<wgt id='1946'> -8.2220863e+01 </wgt>
<wgt id='1947'> -8.2159802e+01 </wgt>
<wgt id='1948'> -8.2208398e+01 </wgt>
<wgt id='1949'> -8.2149371e+01 </wgt>
<wgt id='1950'> -8.2171466e+01 </wgt>
<wgt id='1951'> -8.2193229e+01 </wgt>
<wgt id='1952'> -8.2192451e+01 </wgt>
<wgt id='1953'> -8.2192155e+01 </wgt>
<wgt id='1954'> -8.2160354e+01 </wgt>
<wgt id='1955'> -8.2174644e+01 </wgt>
<wgt id='1956'> -8.2176718e+01 </wgt>
<wgt id='1957'> -8.2178059e+01 </wgt>
<wgt id='1958'> -8.2177144e+01 </wgt>
<wgt id='1959'> -8.2177197e+01 </wgt>
<wgt id='1960'> -8.2177564e+01 </wgt>
<wgt id='1961'> -8.2177030e+01 </wgt>
<wgt id='1962'> -8.2178206e+01 </wgt>
</rwgt>
</event>
<event npLO=" -1 " npNLO=" 1 ">
 7      1 +1.5146096e+02 2.28472690e+01 7.54677110e-03 1.20441510e-01
       21 -1    0    0  501  502 +0.0000000000e+00 +0.0000000000e+00 +4.4580523000e+01 4.4580523000e+01 0.0000000000e+00 0.0000e+00 9.0000e+00
        1 -1    0    0  502    0 +0.0000000000e+00 +0.0000000000e+00 -1.7112945000e+02 1.7112945000e+02 0.0000000000e+00 0.0000e+00 9.0000e+00
       23  2    1    2    0    0 +3.1515527000e+01 +2.4271662000e+01 -1.4087082000e+02 1.7272303000e+02 9.1685961000e+01 0.0000e+00 0.0000e+00
       15  1    3    3    0    0 +5.7095976000e+01 +3.5722182000e+01 -1.2040925000e+02 1.3797670000e+02 1.7770000000e+00 0.0000e+00 9.0000e+00
      -15  1    3    3    0    0 -2.5580450000e+01 -1.1450521000e+01 -2.0461569000e+01 3.4746329000e+01 1.7770000000e+00 0.0000e+00 9.0000e+00
       22  1    1    2    0    0 -1.5985662000e+01 -7.5139469000e+00 +5.5732843000e+00 1.8521941000e+01 0.0000000000e+00 0.0000e+00 9.0000e+00
        1  1    1    2  501    0 -1.5529865000e+01 -1.6757715000e+01 +8.7486159000e+00 2.4464995000e+01 0.0000000000e+00 0.0000e+00 9.0000e+00
#aMCatNLO 1  0  0  1  1 0.14015762E+00 0.00000000E+00 -9  7  0 0.00000000E+00 0.00000000E+00 0.00000000E+00 0.00000000E+00 0.00000000E+00
<rwgt>
<wgt id='1001'> +1.5146000e+02 </wgt>
<wgt id='1002'> +1.5146000e+02 </wgt>
<wgt id='1003'> +1.4049000e+02 </wgt>
<wgt id='1004'> +1.5707000e+02 </wgt>
<wgt id='1005'> +1.5181000e+02 </wgt>
<wgt id='1006'> +1.5107000e+02 </wgt>
<wgt id='1007'> +1.3685000e+02 </wgt>
<wgt id='1008'> +1.4871000e+02 </wgt>
<wgt id='1009'> +1.5876000e+02 </wgt>
<wgt id='1010'> +1.4870000e+02 </wgt>
<wgt id='1011'> +1.5030000e+02 </wgt>
<wgt id='1012'> +1.5543000e+02 </wgt>
<wgt id='1013'> +1.5950000e+02 </wgt>
<wgt id='1014'> +1.5260000e+02 </wgt>
<wgt id='1015'> +1.5465000e+02 </wgt>
<wgt id='1016'> +1.5212000e+02 </wgt>
<wgt id='1017'> +1.5320000e+02 </wgt>
<wgt id='1018'> +1.4645000e+02 </wgt>
<wgt id='1019'> +1.4817000e+02 </wgt>
<wgt id='1020'> +1.4325000e+02 </wgt>
<wgt id='1021'> +1.5417000e+02 </wgt>
<wgt id='1022'> +1.4566000e+02 </wgt>
<wgt id='1023'> +1.5855000e+02 </wgt>
<wgt id='1024'> +1.5260000e+02 </wgt>
<wgt id='1025'> +1.5935000e+02 </wgt>
<wgt id='1026'> +1.4979000e+02 </wgt>
<wgt id='1027'> +1.5350000e+02 </wgt>
<wgt id='1028'> +1.4697000e+02 </wgt>
<wgt id='1029'> +1.4813000e+02 </wgt>
<wgt id='1030'> +1.5252000e+02 </wgt>
<wgt id='1031'> +1.4921000e+02 </wgt>
<wgt id='1032'> +1.5165000e+02 </wgt>
<wgt id='1033'> +1.5109000e+02 </wgt>
<wgt id='1034'> +1.5036000e+02 </wgt>
<wgt id='1035'> +1.5481000e+02 </wgt>
<wgt id='1036'> +1.5036000e+02 </wgt>
<wgt id='1037'> +1.5462000e+02 </wgt>
<wgt id='1038'> +1.4811000e+02 </wgt>
<wgt id='1039'> +1.5194000e+02 </wgt>
<wgt id='1040'> +1.4910000e+02 </wgt>
<wgt id='1041'> +1.4570000e+02 </wgt>
<wgt id='1042'> +1.5330000e+02 </wgt>
<wgt id='1043'> +1.5619000e+02 </wgt>
<wgt id='1044'> +1.5630000e+02 </wgt>
<wgt id='1045'> +1.5257000e+02 </wgt>
<wgt id='1046'> +1.4863000e+02 </wgt>
<wgt id='1047'> +1.5461000e+02 </wgt>
<wgt id='1048'> +1.5222000e+02 </wgt>
<wgt id='1049'> +1.4867000e+02 </wgt>
<wgt id='1050'> +1.4977000e+02 </wgt>
<wgt id='1051'> +1.5034000e+02 </wgt>
<wgt id='1052'> +1.5360000e+02 </wgt>
<wgt id='1053'> +1.5461000e+02 </wgt>
<wgt id='1054'> +1.5007000e+02 </wgt>
<wgt id='1055'> +1.5371000e+02 </wgt>
<wgt id='1056'> +1.5403000e+02 </wgt>
<wgt id='1057'> +1.5028000e+02 </wgt>
<wgt id='1058'> +1.4768000e+02 </wgt>
<wgt id='1059'> +1.5234000e+02 </wgt>
<wgt id='1060'> +1.5158000e+02 </wgt>
<wgt id='1061'> +1.5046000e+02 </wgt>
<wgt id='1062'> +1.4999000e+02 </wgt>
<wgt id='1063'> +1.5005000e+02 </wgt>
<wgt id='1064'> +1.5335000e+02 </wgt>
<wgt id='1065'> +1.5474000e+02 </wgt>
<wgt id='1066'> +1.4826000e+02 </wgt>
<wgt id='1067'> +1.5170000e+02 </wgt>
<wgt id='1068'> +1.5058000e+02 </wgt>
<wgt id='1069'> +1.5836000e+02 </wgt>
<wgt id='1070'> +1.5091000e+02 </wgt>
<wgt id='1071'> +1.5070000e+02 </wgt>
<wgt id='1072'> +1.4973000e+02 </wgt>
<wgt id='1073'> +1.5208000e+02 </wgt>
<wgt id='1074'> +1.4752000e+02 </wgt>
<wgt id='1075'> +1.4809000e+02 </wgt>
<wgt id='1076'> +1.5257000e+02 </wgt>
<wgt id='1077'> +1.5442000e+02 </wgt>
<wgt id='1078'> +1.4703000e+02 </wgt>
<wgt id='1079'> +1.5394000e+02 </wgt>
<wgt id='1080'> +1.5565000e+02 </wgt>
<wgt id='1081'> +1.5099000e+02 </wgt>
<wgt id='1082'> +1.5102000e+02 </wgt>
<wgt id='1083'> +1.5287000e+02 </wgt>
<wgt id='1084'> +1.5530000e+02 </wgt>
<wgt id='1085'> +1.4605000e+02 </wgt>
<wgt id='1086'> +1.5186000e+02 </wgt>
<wgt id='1087'> +1.5103000e+02 </wgt>
<wgt id='1088'> +1.5376000e+02 </wgt>
<wgt id='1089'> +1.5300000e+02 </wgt>
<wgt id='1090'> +1.5476000e+02 </wgt>
<wgt id='1091'> +1.5024000e+02 </wgt>
<wgt id='1092'> +1.5459000e+02 </wgt>
<wgt id='1093'> +1.5299000e+02 </wgt>
<wgt id='1094'> +1.5054000e+02 </wgt>
<wgt id='1095'> +1.4784000e+02 </wgt>
<wgt id='1096'> +1.5584000e+02 </wgt>
<wgt id='1097'> +1.4705000e+02 </wgt>
<wgt id='1098'> +1.5248000e+02 </wgt>
<wgt id='1099'> +1.5155000e+02 </wgt>
<wgt id='1100'> +1.5463000e+02 </wgt>
<wgt id='1101'> +1.5288000e+02 </wgt>
<wgt id='1102'> +1.4790000e+02 </wgt>
<wgt id='1103'> +1.4921000e+02 </wgt>
<wgt id='1104'> +1.5287000e+02 </wgt>
<wgt id='1105'> +1.5146096e+02 </wgt>
<wgt id='1106'> +6.3178976e+01 </wgt>
<wgt id='1107'> +9.2924995e+01 </wgt>
<wgt id='1108'> +9.0002688e+01 </wgt>
<wgt id='1109'> +7.4922539e+01 </wgt>
<wgt id='1110'> +1.1068801e+02 </wgt>
<wgt id='1111'> +6.1403121e+01 </wgt>
<wgt id='1112'> +5.1365944e+01 </wgt>
<wgt id='1113'> +7.5130114e+01 </wgt>
<wgt id='1114'> +7.9619576e+01 </wgt>
<wgt id='1115'> +8.2966366e+01 </wgt>
<wgt id='1116'> +8.0835955e+01 </wgt>
<wgt id='1117'> +7.6796214e+01 </wgt>
<wgt id='1118'> +7.6835098e+01 </wgt>
<wgt id='1119'> +7.9603683e+01 </wgt>
<wgt id='1120'> +8.1343792e+01 </wgt>
<wgt id='1121'> +8.0795118e+01 </wgt>
<wgt id='1122'> +7.9186298e+01 </wgt>
<wgt id='1123'> +7.8787754e+01 </wgt>
<wgt id='1124'> +7.8085772e+01 </wgt>
<wgt id='1125'> +7.9477245e+01 </wgt>
<wgt id='1126'> +7.7389936e+01 </wgt>
<wgt id='1127'> +7.9066396e+01 </wgt>
<wgt id='1128'> +7.8437551e+01 </wgt>
<wgt id='1129'> +8.2097266e+01 </wgt>
<wgt id='1130'> +8.0425588e+01 </wgt>
<wgt id='1131'> +8.1496908e+01 </wgt>
<wgt id='1132'> +7.9616895e+01 </wgt>
<wgt id='1133'> +7.9326175e+01 </wgt>
<wgt id='1134'> +7.8244648e+01 </wgt>
<wgt id='1135'> +7.7033291e+01 </wgt>
<wgt id='1136'> +8.0672031e+01 </wgt>
<wgt id='1137'> +8.2487756e+01 </wgt>
<wgt id='1138'> +8.0550375e+01 </wgt>
<wgt id='1139'> +7.9034062e+01 </wgt>
<wgt id='1140'> +8.1406246e+01 </wgt>
<wgt id='1141'> +8.0644980e+01 </wgt>
<wgt id='1142'> +7.7854994e+01 </wgt>
<wgt id='1143'> +8.0319748e+01 </wgt>
<wgt id='1144'> +7.9785024e+01 </wgt>
<wgt id='1145'> +7.8599972e+01 </wgt>
<wgt id='1146'> +7.8685047e+01 </wgt>
<wgt id='1147'> +7.9831103e+01 </wgt>
<wgt id='1148'> +7.7489356e+01 </wgt>
<wgt id='1149'> +8.1746635e+01 </wgt>
<wgt id='1150'> +7.9119462e+01 </wgt>
<wgt id='1151'> +8.2896314e+01 </wgt>
<wgt id='1152'> +7.9833815e+01 </wgt>
<wgt id='1153'> +7.7178671e+01 </wgt>
<wgt id='1154'> +7.7886873e+01 </wgt>
<wgt id='1155'> +7.7526554e+01 </wgt>
<wgt id='1156'> +7.8497649e+01 </wgt>
<wgt id='1157'> +7.9634347e+01 </wgt>
<wgt id='1158'> +7.8269326e+01 </wgt>
<wgt id='1159'> +8.1273080e+01 </wgt>
<wgt id='1160'> +8.0777987e+01 </wgt>
<wgt id='1161'> +7.7540393e+01 </wgt>
<wgt id='1162'> +7.7839479e+01 </wgt>
<wgt id='1163'> +8.0948484e+01 </wgt>
<wgt id='1164'> +8.1239034e+01 </wgt>
<wgt id='1165'> +7.9834341e+01 </wgt>
<wgt id='1166'> +7.9781623e+01 </wgt>
<wgt id='1167'> +7.8417514e+01 </wgt>
<wgt id='1168'> +8.2278219e+01 </wgt>
<wgt id='1169'> +7.8827636e+01 </wgt>
<wgt id='1170'> +8.0982220e+01 </wgt>
<wgt id='1171'> +8.3738824e+01 </wgt>
<wgt id='1172'> +7.9719259e+01 </wgt>
<wgt id='1173'> +8.0547544e+01 </wgt>
<wgt id='1174'> +8.1266343e+01 </wgt>
<wgt id='1175'> +7.9085670e+01 </wgt>
<wgt id='1176'> +8.1664156e+01 </wgt>
<wgt id='1177'> +7.9962984e+01 </wgt>
<wgt id='1178'> +7.7450623e+01 </wgt>
<wgt id='1179'> +8.0597896e+01 </wgt>
<wgt id='1180'> +8.0379047e+01 </wgt>
<wgt id='1181'> +7.9551188e+01 </wgt>
<wgt id='1182'> +8.0979431e+01 </wgt>
<wgt id='1183'> +7.8990151e+01 </wgt>
<wgt id='1184'> +7.8696941e+01 </wgt>
<wgt id='1185'> +7.9573104e+01 </wgt>
<wgt id='1186'> +8.3967748e+01 </wgt>
<wgt id='1187'> +7.7192670e+01 </wgt>
<wgt id='1188'> +7.7959556e+01 </wgt>
<wgt id='1189'> +7.8709410e+01 </wgt>
<wgt id='1190'> +7.9608498e+01 </wgt>
<wgt id='1191'> +7.7613375e+01 </wgt>
<wgt id='1192'> +7.8968124e+01 </wgt>
<wgt id='1193'> +7.9036952e+01 </wgt>
<wgt id='1194'> +7.7211721e+01 </wgt>
<wgt id='1195'> +7.8516741e+01 </wgt>
<wgt id='1196'> +8.0425588e+01 </wgt>
<wgt id='1197'> +7.6329025e+01 </wgt>
<wgt id='1198'> +7.9337297e+01 </wgt>
<wgt id='1199'> +8.0024915e+01 </wgt>
<wgt id='1200'> +8.0518234e+01 </wgt>
<wgt id='1201'> +8.2001500e+01 </wgt>
<wgt id='1202'> +7.9572877e+01 </wgt>
<wgt id='1203'> +7.6210868e+01 </wgt>
<wgt id='1204'> +7.8270130e+01 </wgt>
<wgt id='1205'> +8.0886168e+01 </wgt>
<wgt id='1206'> +7.9267474e+01 </wgt>
<wgt id='1207'> +7.9902041e+01 </wgt>
<wgt id='1208'> +8.2588406e+01 </wgt>
<wgt id='1209'> +8.0239716e+01 </wgt>
<wgt id='1210'> +7.8862478e+01 </wgt>
<wgt id='1211'> +7.8976556e+01 </wgt>
<wgt id='1212'> +7.9666312e+01 </wgt>
<wgt id='1213'> +7.8942268e+01 </wgt>
<wgt id='1214'> +8.1278576e+01 </wgt>
<wgt id='1215'> +7.6788180e+01 </wgt>
<wgt id='1216'> +7.9435796e+01 </wgt>
<wgt id='1217'> +7.9591265e+01 </wgt>
<wgt id='1218'> +7.9287210e+01 </wgt>
<wgt id='1219'> +7.9585042e+01 </wgt>
<wgt id='1220'> +7.9485086e+01 </wgt>
<wgt id='1221'> +7.9640574e+01 </wgt>
<wgt id='1222'> +7.9400577e+01 </wgt>
<wgt id='1223'> +7.9510335e+01 </wgt>
<wgt id='1224'> +7.9491218e+01 </wgt>
<wgt id='1225'> +7.9294595e+01 </wgt>
<wgt id='1226'> +7.9184947e+01 </wgt>
<wgt id='1227'> +7.9561209e+01 </wgt>
<wgt id='1228'> +7.9709236e+01 </wgt>
<wgt id='1229'> +7.9252203e+01 </wgt>
<wgt id='1230'> +7.9562599e+01 </wgt>
<wgt id='1231'> +7.9447527e+01 </wgt>
<wgt id='1232'> +7.9826673e+01 </wgt>
<wgt id='1233'> +7.9293071e+01 </wgt>
<wgt id='1234'> +7.9543661e+01 </wgt>
<wgt id='1235'> +7.9391865e+01 </wgt>
<wgt id='1236'> +7.9109611e+01 </wgt>
<wgt id='1237'> +7.9908648e+01 </wgt>
<wgt id='1238'> +7.9448836e+01 </wgt>
<wgt id='1239'> +7.9355378e+01 </wgt>
<wgt id='1240'> +7.9968457e+01 </wgt>
<wgt id='1241'> +7.9133962e+01 </wgt>
<wgt id='1242'> +7.9557583e+01 </wgt>
<wgt id='1243'> +7.9082764e+01 </wgt>
<wgt id='1244'> +7.9332278e+01 </wgt>
<wgt id='1245'> +8.0032667e+01 </wgt>
<wgt id='1246'> +7.9489779e+01 </wgt>
<wgt id='1247'> +7.8842384e+01 </wgt>
<wgt id='1248'> +7.9840455e+01 </wgt>
<wgt id='1249'> +7.9316796e+01 </wgt>
<wgt id='1250'> +7.9241647e+01 </wgt>
<wgt id='1251'> +7.9568879e+01 </wgt>
<wgt id='1252'> +7.9426751e+01 </wgt>
<wgt id='1253'> +7.9190214e+01 </wgt>
<wgt id='1254'> +7.9305351e+01 </wgt>
<wgt id='1255'> +7.9575930e+01 </wgt>
<wgt id='1256'> +7.9458986e+01 </wgt>
<wgt id='1257'> +7.9600485e+01 </wgt>
<wgt id='1258'> +7.9239155e+01 </wgt>
<wgt id='1259'> +7.9269343e+01 </wgt>
<wgt id='1260'> +7.9344351e+01 </wgt>
<wgt id='1261'> +7.9229920e+01 </wgt>
<wgt id='1262'> +7.9497932e+01 </wgt>
<wgt id='1263'> +7.9633188e+01 </wgt>
<wgt id='1264'> +7.9580056e+01 </wgt>
<wgt id='1265'> +7.9494865e+01 </wgt>
<wgt id='1266'> +7.9562396e+01 </wgt>
<wgt id='1267'> +7.9335997e+01 </wgt>
<wgt id='1268'> +7.9304300e+01 </wgt>
<wgt id='1269'> +7.9422875e+01 </wgt>
<wgt id='1270'> +7.9485219e+01 </wgt>
<wgt id='1271'> +7.9545733e+01 </wgt>
<wgt id='1272'> +7.9521544e+01 </wgt>
<wgt id='1273'> +7.9423802e+01 </wgt>
<wgt id='1274'> +7.9531246e+01 </wgt>
<wgt id='1275'> +7.9415844e+01 </wgt>
<wgt id='1276'> +7.9263273e+01 </wgt>
<wgt id='1277'> +7.9518707e+01 </wgt>
<wgt id='1278'> +7.9611741e+01 </wgt>
<wgt id='1279'> +7.9577946e+01 </wgt>
<wgt id='1280'> +7.9388724e+01 </wgt>
<wgt id='1281'> +7.9354660e+01 </wgt>
<wgt id='1282'> +7.9460101e+01 </wgt>
<wgt id='1283'> +7.9350162e+01 </wgt>
<wgt id='1284'> +7.9404409e+01 </wgt>
<wgt id='1285'> +7.9365755e+01 </wgt>
<wgt id='1286'> +7.9455476e+01 </wgt>
<wgt id='1287'> +7.9519958e+01 </wgt>
<wgt id='1288'> +7.9576327e+01 </wgt>
<wgt id='1289'> +7.9392679e+01 </wgt>
<wgt id='1290'> +7.9511255e+01 </wgt>
<wgt id='1291'> +7.9468664e+01 </wgt>
<wgt id='1292'> +7.9400319e+01 </wgt>
<wgt id='1293'> +7.9451081e+01 </wgt>
<wgt id='1294'> +7.9474368e+01 </wgt>
<wgt id='1295'> +7.9425970e+01 </wgt>
<wgt id='1296'> +7.9471009e+01 </wgt>
<wgt id='1297'> +7.9441485e+01 </wgt>
<wgt id='1298'> +7.9432062e+01 </wgt>
<wgt id='1299'> +7.9402092e+01 </wgt>
<wgt id='1300'> +7.9417785e+01 </wgt>
<wgt id='1301'> +7.9424435e+01 </wgt>
<wgt id='1302'> +7.9402479e+01 </wgt>
<wgt id='1303'> +7.9394902e+01 </wgt>
<wgt id='1304'> +7.9461869e+01 </wgt>
<wgt id='1305'> +7.9503782e+01 </wgt>
<wgt id='1306'> +7.9441888e+01 </wgt>
<wgt id='1307'> +7.9436104e+01 </wgt>
<wgt id='1308'> +7.9510368e+01 </wgt>
<wgt id='1309'> +7.9431537e+01 </wgt>
<wgt id='1310'> +7.9422203e+01 </wgt>
<wgt id='1311'> +7.9423152e+01 </wgt>
<wgt id='1312'> +7.9391176e+01 </wgt>
<wgt id='1313'> +7.9454190e+01 </wgt>
<wgt id='1314'> +7.9400440e+01 </wgt>
<wgt id='1315'> +7.9412148e+01 </wgt>
<wgt id='1316'> +7.9446704e+01 </wgt>
<wgt id='1317'> +7.7569864e+01 </wgt>
<wgt id='1318'> +8.1527981e+01 </wgt>
<wgt id='1319'> +9.1729370e+01 </wgt>
<wgt id='1320'> +7.9624102e+01 </wgt>
<wgt id='1321'> +8.0882911e+01 </wgt>
<wgt id='1322'> +8.0058632e+01 </wgt>
<wgt id='1323'> +8.0668205e+01 </wgt>
<wgt id='1324'> +7.9376139e+01 </wgt>
<wgt id='1325'> +8.0541079e+01 </wgt>
<wgt id='1326'> +7.9126097e+01 </wgt>
<wgt id='1327'> +7.9330738e+01 </wgt>
<wgt id='1328'> +8.0820418e+01 </wgt>
<wgt id='1329'> +7.8403358e+01 </wgt>
<wgt id='1330'> +8.0276533e+01 </wgt>
<wgt id='1331'> +7.9551940e+01 </wgt>
<wgt id='1332'> +8.0023227e+01 </wgt>
<wgt id='1333'> +7.7393885e+01 </wgt>
<wgt id='1334'> +8.0374290e+01 </wgt>
<wgt id='1335'> +8.0339595e+01 </wgt>
<wgt id='1336'> +7.8379722e+01 </wgt>
<wgt id='1337'> +8.0882843e+01 </wgt>
<wgt id='1338'> +7.8203546e+01 </wgt>
<wgt id='1339'> +8.0331585e+01 </wgt>
<wgt id='1340'> +7.8800893e+01 </wgt>
<wgt id='1341'> +7.9889562e+01 </wgt>
<wgt id='1342'> +7.9009862e+01 </wgt>
<wgt id='1343'> +8.0221309e+01 </wgt>
<wgt id='1344'> +7.9031764e+01 </wgt>
<wgt id='1345'> +7.7925434e+01 </wgt>
<wgt id='1346'> +8.1165166e+01 </wgt>
<wgt id='1347'> +7.9416772e+01 </wgt>
<wgt id='1348'> +7.9923842e+01 </wgt>
<wgt id='1349'> +7.9411475e+01 </wgt>
<wgt id='1350'> +7.9697414e+01 </wgt>
<wgt id='1351'> +8.0329935e+01 </wgt>
<wgt id='1352'> +7.8719129e+01 </wgt>
<wgt id='1353'> +7.9871003e+01 </wgt>
<wgt id='1354'> +7.9087350e+01 </wgt>
<wgt id='1355'> +8.0766664e+01 </wgt>
<wgt id='1356'> +7.8633489e+01 </wgt>
<wgt id='1357'> +8.0334376e+01 </wgt>
<wgt id='1358'> +7.8236667e+01 </wgt>
<wgt id='1359'> +7.8900415e+01 </wgt>
<wgt id='1360'> +7.9722710e+01 </wgt>
<wgt id='1361'> +8.0477497e+01 </wgt>
<wgt id='1362'> +7.9234144e+01 </wgt>
<wgt id='1363'> +7.9634964e+01 </wgt>
<wgt id='1364'> +7.8989624e+01 </wgt>
<wgt id='1365'> +7.9193608e+01 </wgt>
<wgt id='1366'> +7.8354920e+01 </wgt>
<wgt id='1367'> +7.8713556e+01 </wgt>
<wgt id='1368'> +7.9900743e+01 </wgt>
<wgt id='1369'> +7.9549795e+01 </wgt>
<wgt id='1370'> +7.8575164e+01 </wgt>
<wgt id='1371'> +7.8572108e+01 </wgt>
<wgt id='1372'> +7.9125684e+01 </wgt>
<wgt id='1373'> +7.8069555e+01 </wgt>
<wgt id='1374'> +7.9380736e+01 </wgt>
<wgt id='1375'> +7.9303915e+01 </wgt>
<wgt id='1376'> +8.1219309e+01 </wgt>
<wgt id='1377'> +7.7563307e+01 </wgt>
<wgt id='1378'> +8.1514582e+01 </wgt>
<wgt id='1379'> +7.7824834e+01 </wgt>
<wgt id='1380'> +7.6069056e+01 </wgt>
<wgt id='1381'> +7.9474555e+01 </wgt>
<wgt id='1382'> +7.9869103e+01 </wgt>
<wgt id='1383'> +7.8204938e+01 </wgt>
<wgt id='1384'> +7.8477938e+01 </wgt>
<wgt id='1385'> +1.0151196e+02 </wgt>
<wgt id='1386'> +1.0193778e+02 </wgt>
<wgt id='1387'> +1.0101785e+02 </wgt>
<wgt id='1388'> +1.0133395e+02 </wgt>
<wgt id='1389'> +1.0176311e+02 </wgt>
<wgt id='1390'> +1.0178117e+02 </wgt>
<wgt id='1391'> +1.0116938e+02 </wgt>
<wgt id='1392'> +1.0168377e+02 </wgt>
<wgt id='1393'> +1.0136374e+02 </wgt>
<wgt id='1394'> +1.0110775e+02 </wgt>
<wgt id='1395'> +1.0199183e+02 </wgt>
<wgt id='1396'> +1.0140092e+02 </wgt>
<wgt id='1397'> +1.0154827e+02 </wgt>
<wgt id='1398'> +1.0025623e+02 </wgt>
<wgt id='1399'> +1.0244226e+02 </wgt>
<wgt id='1400'> +1.0090293e+02 </wgt>
<wgt id='1401'> +1.0194569e+02 </wgt>
<wgt id='1402'> +1.0148204e+02 </wgt>
<wgt id='1403'> +1.0150970e+02 </wgt>
<wgt id='1404'> +9.9776916e+01 </wgt>
<wgt id='1405'> +1.0238589e+02 </wgt>
<wgt id='1406'> +1.0136442e+02 </wgt>
<wgt id='1407'> +1.0174217e+02 </wgt>
<wgt id='1408'> +1.0115762e+02 </wgt>
<wgt id='1409'> +1.0219519e+02 </wgt>
<wgt id='1410'> +1.0118534e+02 </wgt>
<wgt id='1411'> +1.0221744e+02 </wgt>
<wgt id='1412'> +1.0225234e+02 </wgt>
<wgt id='1413'> +1.0048589e+02 </wgt>
<wgt id='1414'> +1.0180058e+02 </wgt>
<wgt id='1415'> +1.0133131e+02 </wgt>
<wgt id='1416'> +1.0098410e+02 </wgt>
<wgt id='1417'> +1.0171990e+02 </wgt>
<wgt id='1418'> +1.0109493e+02 </wgt>
<wgt id='1419'> +1.0231464e+02 </wgt>
<wgt id='1420'> +1.0093387e+02 </wgt>
<wgt id='1421'> +1.0242661e+02 </wgt>
<wgt id='1422'> +1.0206856e+02 </wgt>
<wgt id='1423'> +1.0081843e+02 </wgt>
<wgt id='1424'> +1.0176305e+02 </wgt>
<wgt id='1425'> +1.0102653e+02 </wgt>
<wgt id='1426'> +1.0210146e+02 </wgt>
<wgt id='1427'> +1.0140039e+02 </wgt>
<wgt id='1428'> +1.0181666e+02 </wgt>
<wgt id='1429'> +1.0080137e+02 </wgt>
<wgt id='1430'> +1.0163960e+02 </wgt>
<wgt id='1431'> +1.0201798e+02 </wgt>
<wgt id='1432'> +1.0179300e+02 </wgt>
<wgt id='1433'> +1.0194320e+02 </wgt>
<wgt id='1434'> +1.0173131e+02 </wgt>
<wgt id='1435'> +1.0108590e+02 </wgt>
<wgt id='1436'> +6.7938538e+01 </wgt>
<wgt id='1437'> +6.7922043e+01 </wgt>
<wgt id='1438'> +6.7999405e+01 </wgt>
<wgt id='1439'> +6.7939936e+01 </wgt>
<wgt id='1440'> +6.7892111e+01 </wgt>
<wgt id='1441'> +6.8274350e+01 </wgt>
<wgt id='1442'> +6.7673766e+01 </wgt>
<wgt id='1443'> +6.7879526e+01 </wgt>
<wgt id='1444'> +6.7793787e+01 </wgt>
<wgt id='1445'> +6.7421730e+01 </wgt>
<wgt id='1446'> +6.8142895e+01 </wgt>
<wgt id='1447'> +6.7878270e+01 </wgt>
<wgt id='1448'> +6.7861580e+01 </wgt>
<wgt id='1449'> +6.8048588e+01 </wgt>
<wgt id='1450'> +6.8024596e+01 </wgt>
<wgt id='1451'> +6.8142793e+01 </wgt>
<wgt id='1452'> +6.7843040e+01 </wgt>
<wgt id='1453'> +6.7988068e+01 </wgt>
<wgt id='1454'> +6.8085528e+01 </wgt>
<wgt id='1455'> +6.7991489e+01 </wgt>
<wgt id='1456'> +6.8021700e+01 </wgt>
<wgt id='1457'> +6.8205242e+01 </wgt>
<wgt id='1458'> +6.8153664e+01 </wgt>
<wgt id='1459'> +6.7474236e+01 </wgt>
<wgt id='1460'> +6.7902995e+01 </wgt>
<wgt id='1461'> +6.8042547e+01 </wgt>
<wgt id='1462'> +6.7563077e+01 </wgt>
<wgt id='1463'> +6.8771992e+01 </wgt>
<wgt id='1464'> +6.7934983e+01 </wgt>
<wgt id='1465'> +7.5905796e+01 </wgt>
<wgt id='1466'> +7.7925320e+01 </wgt>
<wgt id='1467'> +7.7743823e+01 </wgt>
<wgt id='1468'> +7.7812862e+01 </wgt>
<wgt id='1469'> +7.8681779e+01 </wgt>
<wgt id='1470'> +7.7752338e+01 </wgt>
<wgt id='1471'> +7.7831318e+01 </wgt>
<wgt id='1472'> +7.7149477e+01 </wgt>
<wgt id='1473'> +7.8977252e+01 </wgt>
<wgt id='1474'> +7.9457907e+01 </wgt>
<wgt id='1475'> +7.7435213e+01 </wgt>
<wgt id='1476'> +7.7951842e+01 </wgt>
<wgt id='1477'> +7.7648068e+01 </wgt>
<wgt id='1478'> +7.7562960e+01 </wgt>
<wgt id='1479'> +7.7997549e+01 </wgt>
<wgt id='1480'> +7.8054357e+01 </wgt>
<wgt id='1481'> +7.7872707e+01 </wgt>
<wgt id='1482'> +7.7746906e+01 </wgt>
<wgt id='1483'> +7.8048534e+01 </wgt>
<wgt id='1484'> +7.8491560e+01 </wgt>
<wgt id='1485'> +7.7590703e+01 </wgt>
<wgt id='1486'> +7.8038922e+01 </wgt>
<wgt id='1487'> +7.7614231e+01 </wgt>
<wgt id='1488'> +7.7725979e+01 </wgt>
<wgt id='1489'> +7.8370124e+01 </wgt>
<wgt id='1490'> +7.7796617e+01 </wgt>
<wgt id='1491'> +7.7575794e+01 </wgt>
<wgt id='1492'> +7.7586953e+01 </wgt>
<wgt id='1493'> +7.8008353e+01 </wgt>
<wgt id='1494'> +7.7567651e+01 </wgt>
<wgt id='1495'> +7.7669044e+01 </wgt>
<wgt id='1496'> +7.7562849e+01 </wgt>
<wgt id='1497'> +7.7882636e+01 </wgt>
<wgt id='1498'> +7.8074023e+01 </wgt>
<wgt id='1499'> +7.7464255e+01 </wgt>
<wgt id='1500'> +7.7994732e+01 </wgt>
<wgt id='1501'> +7.7886282e+01 </wgt>
<wgt id='1502'> +7.7941152e+01 </wgt>
<wgt id='1503'> +7.8166756e+01 </wgt>
<wgt id='1504'> +7.7520164e+01 </wgt>
<wgt id='1505'> +7.7781808e+01 </wgt>
<wgt id='1506'> +7.8130464e+01 </wgt>
<wgt id='1507'> +7.7705740e+01 </wgt>
<wgt id='1508'> +7.8184437e+01 </wgt>
<wgt id='1509'> +7.7856853e+01 </wgt>
<wgt id='1510'> +7.8222605e+01 </wgt>
<wgt id='1511'> +7.7987308e+01 </wgt>
<wgt id='1512'> +7.7897855e+01 </wgt>
<wgt id='1513'> +7.7932578e+01 </wgt>
<wgt id='1514'> +7.7880571e+01 </wgt>
<wgt id='1515'> +7.7975120e+01 </wgt>
<wgt id='1516'> +7.8011975e+01 </wgt>
<wgt id='1517'> +7.7902381e+01 </wgt>
<wgt id='1518'> +7.7794978e+01 </wgt>
<wgt id='1519'> +7.7826698e+01 </wgt>
<wgt id='1520'> +7.7843724e+01 </wgt>
<wgt id='1521'> +7.7932034e+01 </wgt>
<wgt id='1522'> +7.7849121e+01 </wgt>
<wgt id='1523'> +7.7889743e+01 </wgt>
<wgt id='1524'> +7.8047370e+01 </wgt>
<wgt id='1525'> +7.7901695e+01 </wgt>
<wgt id='1526'> +7.7853725e+01 </wgt>
<wgt id='1527'> +7.7899899e+01 </wgt>
<wgt id='1528'> +7.7947952e+01 </wgt>
<wgt id='1529'> +7.7920330e+01 </wgt>
<wgt id='1530'> +7.7949312e+01 </wgt>
<wgt id='1531'> +7.7860889e+01 </wgt>
<wgt id='1532'> +7.7835247e+01 </wgt>
<wgt id='1533'> +7.7902891e+01 </wgt>
<wgt id='1534'> +7.7923442e+01 </wgt>
<wgt id='1535'> +7.7966509e+01 </wgt>
<wgt id='1536'> +7.7913937e+01 </wgt>
<wgt id='1537'> +7.7924334e+01 </wgt>
<wgt id='1538'> +7.7911795e+01 </wgt>
<wgt id='1539'> +7.7925009e+01 </wgt>
<wgt id='1540'> +7.7959408e+01 </wgt>
<wgt id='1541'> +7.7869568e+01 </wgt>
<wgt id='1542'> +7.7944286e+01 </wgt>
<wgt id='1543'> +7.7928163e+01 </wgt>
<wgt id='1544'> +7.7963757e+01 </wgt>
<wgt id='1545'> +7.7957884e+01 </wgt>
<wgt id='1546'> +7.7912671e+01 </wgt>
<wgt id='1547'> +7.7950036e+01 </wgt>
<wgt id='1548'> +7.7911098e+01 </wgt>
<wgt id='1549'> +7.7953626e+01 </wgt>
<wgt id='1550'> +7.7964796e+01 </wgt>
<wgt id='1551'> +7.7932668e+01 </wgt>
<wgt id='1552'> +7.7938729e+01 </wgt>
<wgt id='1553'> +7.7928575e+01 </wgt>
<wgt id='1554'> +7.7889214e+01 </wgt>
<wgt id='1555'> +7.7907707e+01 </wgt>
<wgt id='1556'> +7.7901471e+01 </wgt>
<wgt id='1557'> +7.7928615e+01 </wgt>
<wgt id='1558'> +7.7945477e+01 </wgt>
<wgt id='1559'> +7.7898532e+01 </wgt>
<wgt id='1560'> +7.7939605e+01 </wgt>
<wgt id='1561'> +7.7938776e+01 </wgt>
<wgt id='1562'> +7.7922900e+01 </wgt>
<wgt id='1563'> +7.7919148e+01 </wgt>
<wgt id='1564'> +7.7943469e+01 </wgt>
<wgt id='1565'> +7.7953073e+01 </wgt>
<wgt id='1566'> +7.7927383e+01 </wgt>
<wgt id='1567'> +7.6376770e+01 </wgt>
<wgt id='1568'> +7.9272392e+01 </wgt>
<wgt id='1569'> +7.7758414e+01 </wgt>
<wgt id='1570'> +7.8170375e+01 </wgt>
<wgt id='1571'> +7.7735947e+01 </wgt>
<wgt id='1572'> +7.7688776e+01 </wgt>
<wgt id='1573'> +7.8035908e+01 </wgt>
<wgt id='1574'> +7.8273934e+01 </wgt>
<wgt id='1575'> +7.7915056e+01 </wgt>
<wgt id='1576'> +7.8115646e+01 </wgt>
<wgt id='1577'> +7.7988771e+01 </wgt>
<wgt id='1578'> +7.7573983e+01 </wgt>
<wgt id='1579'> +7.8015130e+01 </wgt>
<wgt id='1580'> +7.8037599e+01 </wgt>
<wgt id='1581'> +7.6832608e+01 </wgt>
<wgt id='1582'> +7.7549029e+01 </wgt>
<wgt id='1583'> +7.7135102e+01 </wgt>
<wgt id='1584'> +7.8197340e+01 </wgt>
<wgt id='1585'> +7.7385969e+01 </wgt>
<wgt id='1586'> +7.7782572e+01 </wgt>
<wgt id='1587'> +7.8094919e+01 </wgt>
<wgt id='1588'> +7.7023206e+01 </wgt>
<wgt id='1589'> +7.7877014e+01 </wgt>
<wgt id='1590'> +7.7850365e+01 </wgt>
<wgt id='1591'> +7.7223331e+01 </wgt>
<wgt id='1592'> +7.7721188e+01 </wgt>
<wgt id='1593'> +7.8103460e+01 </wgt>
<wgt id='1594'> +7.7754843e+01 </wgt>
<wgt id='1595'> +7.7563072e+01 </wgt>
<wgt id='1596'> +7.7722471e+01 </wgt>
<wgt id='1597'> +7.7716375e+01 </wgt>
<wgt id='1598'> +7.7658223e+01 </wgt>
<wgt id='1599'> +7.7865748e+01 </wgt>
<wgt id='1600'> +7.7833344e+01 </wgt>
<wgt id='1601'> +7.8053355e+01 </wgt>
<wgt id='1602'> +7.8138831e+01 </wgt>
<wgt id='1603'> +7.7628152e+01 </wgt>
<wgt id='1604'> +7.8263762e+01 </wgt>
<wgt id='1605'> +7.7119302e+01 </wgt>
<wgt id='1606'> +7.7995837e+01 </wgt>
<wgt id='1607'> +7.7606321e+01 </wgt>
<wgt id='1608'> +7.7482358e+01 </wgt>
<wgt id='1609'> +7.7532248e+01 </wgt>
<wgt id='1610'> +7.7636302e+01 </wgt>
<wgt id='1611'> +7.7679541e+01 </wgt>
<wgt id='1612'> +7.7740324e+01 </wgt>
<wgt id='1613'> +7.8003243e+01 </wgt>
<wgt id='1614'> +7.7772799e+01 </wgt>
<wgt id='1615'> +7.7766987e+01 </wgt>
<wgt id='1616'> +7.7772962e+01 </wgt>
<wgt id='1617'> +7.7798129e+01 </wgt>
<wgt id='1618'> +7.7773457e+01 </wgt>
<wgt id='1619'> +7.7752214e+01 </wgt>
<wgt id='1620'> +7.7743474e+01 </wgt>
<wgt id='1621'> +7.7821719e+01 </wgt>
<wgt id='1622'> +7.7725860e+01 </wgt>
<wgt id='1623'> +7.7695798e+01 </wgt>
<wgt id='1624'> +7.7705897e+01 </wgt>
<wgt id='1625'> +7.7959745e+01 </wgt>
<wgt id='1626'> +7.7781807e+01 </wgt>
<wgt id='1627'> +7.7727761e+01 </wgt>
<wgt id='1628'> +7.7693210e+01 </wgt>
<wgt id='1629'> +7.7771130e+01 </wgt>
<wgt id='1630'> +7.7754777e+01 </wgt>
<wgt id='1631'> +7.7839029e+01 </wgt>
<wgt id='1632'> +7.7746688e+01 </wgt>
<wgt id='1633'> +7.7763988e+01 </wgt>
<wgt id='1634'> +7.7774268e+01 </wgt>
<wgt id='1635'> +7.7811246e+01 </wgt>
<wgt id='1636'> +7.7822463e+01 </wgt>
<wgt id='1637'> +7.7771928e+01 </wgt>
<wgt id='1638'> +7.7809464e+01 </wgt>
<wgt id='1639'> +7.7807444e+01 </wgt>
<wgt id='1640'> +7.7768890e+01 </wgt>
<wgt id='1641'> +7.7774748e+01 </wgt>
<wgt id='1642'> +7.7775477e+01 </wgt>
<wgt id='1643'> +7.7807933e+01 </wgt>
<wgt id='1644'> +7.7748074e+01 </wgt>
<wgt id='1645'> +7.7763653e+01 </wgt>
<wgt id='1646'> +7.7731295e+01 </wgt>
<wgt id='1647'> +7.7784861e+01 </wgt>
<wgt id='1648'> +7.7744628e+01 </wgt>
<wgt id='1649'> +7.7795074e+01 </wgt>
<wgt id='1650'> +7.7753764e+01 </wgt>
<wgt id='1651'> +7.7786256e+01 </wgt>
<wgt id='1652'> +7.7745101e+01 </wgt>
<wgt id='1653'> +7.7748678e+01 </wgt>
<wgt id='1654'> +7.7722736e+01 </wgt>
<wgt id='1655'> +7.7756667e+01 </wgt>
<wgt id='1656'> +7.7722009e+01 </wgt>
<wgt id='1657'> +7.7738780e+01 </wgt>
<wgt id='1658'> +7.7761299e+01 </wgt>
<wgt id='1659'> +7.7740301e+01 </wgt>
<wgt id='1660'> +7.7761999e+01 </wgt>
<wgt id='1661'> +7.7777080e+01 </wgt>
<wgt id='1662'> +7.7742067e+01 </wgt>
<wgt id='1663'> +7.7753254e+01 </wgt>
<wgt id='1664'> +7.7762704e+01 </wgt>
<wgt id='1665'> +7.7729428e+01 </wgt>
<wgt id='1666'> +7.7757074e+01 </wgt>
<wgt id='1667'> +7.7752858e+01 </wgt>
<wgt id='1668'> +7.7756115e+01 </wgt>
<wgt id='1669'> +7.7769241e+01 </wgt>
<wgt id='1670'> +7.6389516e+01 </wgt>
<wgt id='1671'> +7.9021857e+01 </wgt>
<wgt id='1672'> +7.7932539e+01 </wgt>
<wgt id='1673'> +7.7861872e+01 </wgt>
<wgt id='1674'> +7.7370818e+01 </wgt>
<wgt id='1675'> +7.7978649e+01 </wgt>
<wgt id='1676'> +7.9760458e+01 </wgt>
<wgt id='1677'> +7.8960845e+01 </wgt>
<wgt id='1678'> +7.8352560e+01 </wgt>
<wgt id='1679'> +7.7991562e+01 </wgt>
<wgt id='1680'> +7.7820777e+01 </wgt>
<wgt id='1681'> +7.8056460e+01 </wgt>
<wgt id='1682'> +7.7858845e+01 </wgt>
<wgt id='1683'> +7.7827012e+01 </wgt>
<wgt id='1684'> +7.7695608e+01 </wgt>
<wgt id='1685'> +7.7851222e+01 </wgt>
<wgt id='1686'> +7.7865667e+01 </wgt>
<wgt id='1687'> +7.8112426e+01 </wgt>
<wgt id='1688'> +7.8258474e+01 </wgt>
<wgt id='1689'> +7.7029440e+01 </wgt>
<wgt id='1690'> +7.7936648e+01 </wgt>
<wgt id='1691'> +7.7899379e+01 </wgt>
<wgt id='1692'> +7.8326065e+01 </wgt>
<wgt id='1693'> +7.8050447e+01 </wgt>
<wgt id='1694'> +7.7898647e+01 </wgt>
<wgt id='1695'> +7.8005443e+01 </wgt>
<wgt id='1696'> +7.8037529e+01 </wgt>
<wgt id='1697'> +7.8001050e+01 </wgt>
<wgt id='1698'> +7.7608781e+01 </wgt>
<wgt id='1699'> +7.8066334e+01 </wgt>
<wgt id='1700'> +7.7824825e+01 </wgt>
<wgt id='1701'> +7.7985623e+01 </wgt>
<wgt id='1702'> +7.7899266e+01 </wgt>
<wgt id='1703'> +7.6376770e+01 </wgt>
<wgt id='1704'> +7.9272392e+01 </wgt>
<wgt id='1705'> +7.7763342e+01 </wgt>
<wgt id='1706'> +7.8370125e+01 </wgt>
<wgt id='1707'> +7.8296310e+01 </wgt>
<wgt id='1708'> +7.7660476e+01 </wgt>
<wgt id='1709'> +7.7076645e+01 </wgt>
<wgt id='1710'> +7.7121974e+01 </wgt>
<wgt id='1711'> +7.7762303e+01 </wgt>
<wgt id='1712'> +7.7729060e+01 </wgt>
<wgt id='1713'> +7.7805805e+01 </wgt>
<wgt id='1714'> +7.7178512e+01 </wgt>
<wgt id='1715'> +7.8282816e+01 </wgt>
<wgt id='1716'> +7.8036234e+01 </wgt>
<wgt id='1717'> +7.7654614e+01 </wgt>
<wgt id='1718'> +7.7802310e+01 </wgt>
<wgt id='1719'> +7.7652128e+01 </wgt>
<wgt id='1720'> +7.7675343e+01 </wgt>
<wgt id='1721'> +7.7862317e+01 </wgt>
<wgt id='1722'> +7.7858398e+01 </wgt>
<wgt id='1723'> +7.7892101e+01 </wgt>
<wgt id='1724'> +7.7937276e+01 </wgt>
<wgt id='1725'> +7.7065916e+01 </wgt>
<wgt id='1726'> +7.7433061e+01 </wgt>
<wgt id='1727'> +7.8445834e+01 </wgt>
<wgt id='1728'> +7.7729676e+01 </wgt>
<wgt id='1729'> +7.7540953e+01 </wgt>
<wgt id='1730'> +7.7396971e+01 </wgt>
<wgt id='1731'> +7.7877071e+01 </wgt>
<wgt id='1732'> +7.7676455e+01 </wgt>
<wgt id='1733'> +7.7430518e+01 </wgt>
<wgt id='1734'> +7.7657186e+01 </wgt>
<wgt id='1735'> +7.7629571e+01 </wgt>
<wgt id='1736'> +7.6389516e+01 </wgt>
<wgt id='1737'> +7.9021857e+01 </wgt>
<wgt id='1738'> +7.8545964e+01 </wgt>
<wgt id='1739'> +7.8568742e+01 </wgt>
<wgt id='1740'> +7.8523376e+01 </wgt>
<wgt id='1741'> +7.8608573e+01 </wgt>
<wgt id='1742'> +7.8483352e+01 </wgt>
<wgt id='1743'> +7.8660432e+01 </wgt>
<wgt id='1744'> +7.8431792e+01 </wgt>
<wgt id='1745'> +7.8437998e+01 </wgt>
<wgt id='1746'> +7.8652208e+01 </wgt>
<wgt id='1747'> +7.8924094e+01 </wgt>
<wgt id='1748'> +7.8150271e+01 </wgt>
<wgt id='1749'> +7.8581814e+01 </wgt>
<wgt id='1750'> +7.8502327e+01 </wgt>
<wgt id='1751'> +7.8418218e+01 </wgt>
<wgt id='1752'> +7.8673757e+01 </wgt>
<wgt id='1753'> +7.8664608e+01 </wgt>
<wgt id='1754'> +7.8384692e+01 </wgt>
<wgt id='1755'> +7.8743582e+01 </wgt>
<wgt id='1756'> +7.8280679e+01 </wgt>
<wgt id='1757'> +7.8037974e+01 </wgt>
<wgt id='1758'> +7.9006041e+01 </wgt>
<wgt id='1759'> +7.8149912e+01 </wgt>
<wgt id='1760'> +7.8837125e+01 </wgt>
<wgt id='1761'> +7.8775087e+01 </wgt>
<wgt id='1762'> +7.7920972e+01 </wgt>
<wgt id='1763'> +7.8781748e+01 </wgt>
<wgt id='1764'> +7.8383294e+01 </wgt>
<wgt id='1765'> +7.8613376e+01 </wgt>
<wgt id='1766'> +7.8521196e+01 </wgt>
<wgt id='1767'> +7.8545964e+01 </wgt>
<wgt id='1768'> +8.0454354e+01 </wgt>
<wgt id='1769'> +7.6420415e+01 </wgt>
<wgt id='1770'> +8.2959355e+01 </wgt>
<wgt id='1771'> +8.1001635e+01 </wgt>
<wgt id='1772'> +7.8748478e+01 </wgt>
<wgt id='1773'> +7.8363402e+01 </wgt>
<wgt id='1774'> +7.8388901e+01 </wgt>
<wgt id='1775'> +7.8663162e+01 </wgt>
<wgt id='1776'> +7.8098754e+01 </wgt>
<wgt id='1777'> +7.8956925e+01 </wgt>
<wgt id='1778'> +7.8266579e+01 </wgt>
<wgt id='1779'> +7.9159834e+01 </wgt>
<wgt id='1780'> +7.6471628e+01 </wgt>
<wgt id='1781'> +7.5456261e+01 </wgt>
<wgt id='1782'> +7.5492759e+01 </wgt>
<wgt id='1783'> +7.5401982e+01 </wgt>
<wgt id='1784'> +7.5455277e+01 </wgt>
<wgt id='1785'> +7.5439237e+01 </wgt>
<wgt id='1786'> +7.5578887e+01 </wgt>
<wgt id='1787'> +7.5315936e+01 </wgt>
<wgt id='1788'> +7.5348912e+01 </wgt>
<wgt id='1789'> +7.5541856e+01 </wgt>
<wgt id='1790'> +7.5701587e+01 </wgt>
<wgt id='1791'> +7.5192535e+01 </wgt>
<wgt id='1792'> +7.5800095e+01 </wgt>
<wgt id='1793'> +7.5083811e+01 </wgt>
<wgt id='1794'> +7.5219049e+01 </wgt>
<wgt id='1795'> +7.5676712e+01 </wgt>
<wgt id='1796'> +7.5400268e+01 </wgt>
<wgt id='1797'> +7.5506520e+01 </wgt>
<wgt id='1798'> +7.5328421e+01 </wgt>
<wgt id='1799'> +7.5545850e+01 </wgt>
<wgt id='1800'> +7.5243819e+01 </wgt>
<wgt id='1801'> +7.5602179e+01 </wgt>
<wgt id='1802'> +7.5267279e+01 </wgt>
<wgt id='1803'> +7.5529337e+01 </wgt>
<wgt id='1804'> +7.5947816e+01 </wgt>
<wgt id='1805'> +7.4955196e+01 </wgt>
<wgt id='1806'> +7.6409802e+01 </wgt>
<wgt id='1807'> +7.4381318e+01 </wgt>
<wgt id='1808'> +7.6352476e+01 </wgt>
<wgt id='1809'> +7.4627825e+01 </wgt>
<wgt id='1810'> +7.5449401e+01 </wgt>
<wgt id='1811'> +7.7501217e+01 </wgt>
<wgt id='1812'> +7.2979021e+01 </wgt>
<wgt id='1813'> +7.9795905e+01 </wgt>
<wgt id='1814'> +7.7368121e+01 </wgt>
<wgt id='1815'> +7.6784959e+01 </wgt>
<wgt id='1816'> +7.5601831e+01 </wgt>
<wgt id='1817'> +7.5269243e+01 </wgt>
<wgt id='1818'> +7.5361640e+01 </wgt>
<wgt id='1819'> +7.5449043e+01 </wgt>
<wgt id='1820'> +7.7342840e+01 </wgt>
<wgt id='1821'> +7.5958757e+01 </wgt>
<wgt id='1822'> +7.4994457e+01 </wgt>
<wgt id='1823'> +7.4686606e+01 </wgt>
<wgt id='1824'> +7.9025585e+01 </wgt>
<wgt id='1825'> +7.9000359e+01 </wgt>
<wgt id='1826'> +7.8977185e+01 </wgt>
<wgt id='1827'> +7.8951860e+01 </wgt>
<wgt id='1828'> +7.8928741e+01 </wgt>
<wgt id='1829'> +7.8903387e+01 </wgt>
<wgt id='1830'> +7.8880259e+01 </wgt>
<wgt id='1831'> +7.8855081e+01 </wgt>
<wgt id='1832'> +7.8831952e+01 </wgt>
<wgt id='1833'> +7.8806770e+01 </wgt>
<wgt id='1834'> +7.8781542e+01 </wgt>
<wgt id='1835'> +7.8758269e+01 </wgt>
<wgt id='1836'> +7.8735072e+01 </wgt>
<wgt id='1837'> +7.8711835e+01 </wgt>
<wgt id='1838'> +7.8686655e+01 </wgt>
<wgt id='1839'> +7.8663447e+01 </wgt>
<wgt id='1840'> +7.8638276e+01 </wgt>
<wgt id='1841'> +7.8615131e+01 </wgt>
<wgt id='1842'> +7.8589894e+01 </wgt>
<wgt id='1843'> +7.8566918e+01 </wgt>
<wgt id='1844'> +7.8541700e+01 </wgt>
<wgt id='1845'> +7.8518580e+01 </wgt>
<wgt id='1846'> +7.8493337e+01 </wgt>
<wgt id='1847'> +7.8468173e+01 </wgt>
<wgt id='1848'> +7.8445025e+01 </wgt>
<wgt id='1849'> +7.8421850e+01 </wgt>
<wgt id='1850'> +7.8398771e+01 </wgt>
<wgt id='1851'> +7.8373579e+01 </wgt>
<wgt id='1852'> +7.8350443e+01 </wgt>
<wgt id='1853'> +7.8325367e+01 </wgt>
<wgt id='1854'> +7.8302383e+01 </wgt>
<wgt id='1855'> +7.7174219e+01 </wgt>
<wgt id='1856'> +7.7573367e+01 </wgt>
<wgt id='1857'> +7.7146703e+01 </wgt>
<wgt id='1858'> +7.7109615e+01 </wgt>
<wgt id='1859'> +7.7449599e+01 </wgt>
<wgt id='1860'> +7.7685333e+01 </wgt>
<wgt id='1861'> +7.7339634e+01 </wgt>
<wgt id='1862'> +7.7536541e+01 </wgt>
<wgt id='1863'> +7.7403568e+01 </wgt>
<wgt id='1864'> +7.6992949e+01 </wgt>
<wgt id='1865'> +7.7429507e+01 </wgt>
<wgt id='1866'> +7.7460972e+01 </wgt>
<wgt id='1867'> +7.6260789e+01 </wgt>
<wgt id='1868'> +7.6972525e+01 </wgt>
<wgt id='1869'> +7.6551817e+01 </wgt>
<wgt id='1870'> +7.7591204e+01 </wgt>
<wgt id='1871'> +7.6816347e+01 </wgt>
<wgt id='1872'> +7.7194559e+01 </wgt>
<wgt id='1873'> +7.7506042e+01 </wgt>
<wgt id='1874'> +7.6450860e+01 </wgt>
<wgt id='1875'> +7.7300873e+01 </wgt>
<wgt id='1876'> +7.7256028e+01 </wgt>
<wgt id='1877'> +7.6643999e+01 </wgt>
<wgt id='1878'> +7.7137655e+01 </wgt>
<wgt id='1879'> +7.7510707e+01 </wgt>
<wgt id='1880'> +7.7165886e+01 </wgt>
<wgt id='1881'> +7.6972168e+01 </wgt>
<wgt id='1882'> +7.7146163e+01 </wgt>
<wgt id='1883'> +7.7137916e+01 </wgt>
<wgt id='1884'> +7.7069427e+01 </wgt>
<wgt id='1885'> +7.7280677e+01 </wgt>
<wgt id='1886'> +7.7256696e+01 </wgt>
<wgt id='1887'> +7.7462516e+01 </wgt>
<wgt id='1888'> +7.7552225e+01 </wgt>
<wgt id='1889'> +7.7042489e+01 </wgt>
<wgt id='1890'> +7.7677368e+01 </wgt>
<wgt id='1891'> +7.6539611e+01 </wgt>
<wgt id='1892'> +7.7410409e+01 </wgt>
<wgt id='1893'> +7.7021229e+01 </wgt>
<wgt id='1894'> +7.6896838e+01 </wgt>
<wgt id='1895'> +7.6949627e+01 </wgt>
<wgt id='1896'> +7.7050585e+01 </wgt>
<wgt id='1897'> +7.7093264e+01 </wgt>
<wgt id='1898'> +7.7160816e+01 </wgt>
<wgt id='1899'> +7.7416854e+01 </wgt>
<wgt id='1900'> +7.7186564e+01 </wgt>
<wgt id='1901'> +7.7184438e+01 </wgt>
<wgt id='1902'> +7.7185903e+01 </wgt>
<wgt id='1903'> +7.7215898e+01 </wgt>
<wgt id='1904'> +7.7186870e+01 </wgt>
<wgt id='1905'> +7.7169986e+01 </wgt>
<wgt id='1906'> +7.7158377e+01 </wgt>
<wgt id='1907'> +7.7236330e+01 </wgt>
<wgt id='1908'> +7.7140539e+01 </wgt>
<wgt id='1909'> +7.7113073e+01 </wgt>
<wgt id='1910'> +7.7123452e+01 </wgt>
<wgt id='1911'> +7.7371824e+01 </wgt>
<wgt id='1912'> +7.7198633e+01 </wgt>
<wgt id='1913'> +7.7148072e+01 </wgt>
<wgt id='1914'> +7.7111554e+01 </wgt>
<wgt id='1915'> +7.7190244e+01 </wgt>
<wgt id='1916'> +7.7171034e+01 </wgt>
<wgt id='1917'> +7.7252228e+01 </wgt>
<wgt id='1918'> +7.7163055e+01 </wgt>
<wgt id='1919'> +7.7178971e+01 </wgt>
<wgt id='1920'> +7.7188768e+01 </wgt>
<wgt id='1921'> +7.7226740e+01 </wgt>
<wgt id='1922'> +7.7236821e+01 </wgt>
<wgt id='1923'> +7.7188116e+01 </wgt>
<wgt id='1924'> +7.7223723e+01 </wgt>
<wgt id='1925'> +7.7222241e+01 </wgt>
<wgt id='1926'> +7.7185214e+01 </wgt>
<wgt id='1927'> +7.7189857e+01 </wgt>
<wgt id='1928'> +7.7190425e+01 </wgt>
<wgt id='1929'> +7.7221711e+01 </wgt>
<wgt id='1930'> +7.7163502e+01 </wgt>
<wgt id='1931'> +7.7181622e+01 </wgt>
<wgt id='1932'> +7.7145869e+01 </wgt>
<wgt id='1933'> +7.7202571e+01 </wgt>
<wgt id='1934'> +7.7160964e+01 </wgt>
<wgt id='1935'> +7.7209051e+01 </wgt>
<wgt id='1936'> +7.7171705e+01 </wgt>
<wgt id='1937'> +7.7202770e+01 </wgt>
<wgt id='1938'> +7.7160386e+01 </wgt>
<wgt id='1939'> +7.7163450e+01 </wgt>
<wgt id='1940'> +7.7139642e+01 </wgt>
<wgt id='1941'> +7.7175379e+01 </wgt>
<wgt id='1942'> +7.7136639e+01 </wgt>
<wgt id='1943'> +7.7154528e+01 </wgt>
<wgt id='1944'> +7.7175636e+01 </wgt>
<wgt id='1945'> +7.7156021e+01 </wgt>
<wgt id='1946'> +7.7176817e+01 </wgt>
<wgt id='1947'> +7.7191241e+01 </wgt>
<wgt id='1948'> +7.7158562e+01 </wgt>
<wgt id='1949'> +7.7167678e+01 </wgt>
<wgt id='1950'> +7.7177821e+01 </wgt>
<wgt id='1951'> +7.7145143e+01 </wgt>
<wgt id='1952'> +7.7174053e+01 </wgt>
<wgt id='1953'> +7.7169240e+01 </wgt>
<wgt id='1954'> +7.7171563e+01 </wgt>
<wgt id='1955'> +7.7184952e+01 </wgt>
<wgt id='1956'> +7.7173675e+01 </wgt>
<wgt id='1957'> +7.7177267e+01 </wgt>
<wgt id='1958'> +7.7174819e+01 </wgt>
<wgt id='1959'> +7.7174912e+01 </wgt>
<wgt id='1960'> +7.7175919e+01 </wgt>
<wgt id='1961'> +7.7174481e+01 </wgt>
<wgt id='1962'> +7.7177894e+01 </wgt>
</rwgt>
</event>
<event npLO=" -1 " npNLO=" 1 ">
 7      1 +1.5146096e+02 2.99326990e+01 7.54677110e-03 1.07324660e-01
       21 -1    0    0  501  502 +0.0000000000e+00 +0.0000000000e+00 +2.0969849000e+02 2.0969849000e+02 0.0000000000e+00 0.0000e+00 9.0000e+00
        5 -1    0    0  502    0 +0.0000000000e+00 +0.0000000000e+00 -3.6526637000e+01 3.6526637000e+01 0.0000000000e+00 0.0000e+00 9.0000e+00
       23  2    1    2    0    0 -1.7240218000e+01 -4.5590504000e+01 +4.9603675000e+01 1.1339134000e+02 8.9562008000e+01 0.0000e+00 0.0000e+00
       15  1    3    3    0    0 +9.0527203000e+00 -3.6278679000e+01 +4.0524845000e+01 5.5168063000e+01 1.7770000000e+00 0.0000e+00 9.0000e+00
      -15  1    3    3    0    0 -2.1536003000e+01 -2.8991786000e+01 +1.1229463000e+01 3.7862669000e+01 1.7770000000e+00 0.0000e+00 9.0000e+00
       22  1    3    3    0    0 -4.7569353000e+00 +1.9679962000e+01 -2.1506337000e+00 2.0360613000e+01 0.0000000000e+00 0.0000e+00 9.0000e+00
        5  1    1    2  501    0 +1.7240218000e+01 +4.5590504000e+01 +1.2356818000e+02 1.3283378000e+02 0.0000000000e+00 0.0000e+00 9.0000e+00
#aMCatNLO 1  0  0  1  6 0.25719375E+02 0.00000000E+00 -9  7  0 0.00000000E+00 0.00000000E+00 0.00000000E+00 0.00000000E+00 0.00000000E+00
<rwgt>
<wgt id='1001'> +1.5146000e+02 </wgt>
<wgt id='1002'> +1.5146000e+02 </wgt>
<wgt id='1003'> +1.4032000e+02 </wgt>
<wgt id='1004'> +1.5137000e+02 </wgt>
<wgt id='1005'> +1.5074000e+02 </wgt>
<wgt id='1006'> +1.4982000e+02 </wgt>
<wgt id='1007'> +1.3364000e+02 </wgt>
<wgt id='1008'> +1.5333000e+02 </wgt>
<wgt id='1009'> +1.5303000e+02 </wgt>
<wgt id='1010'> +1.5272000e+02 </wgt>
<wgt id='1011'> +1.5211000e+02 </wgt>
<wgt id='1012'> +1.4522000e+02 </wgt>
<wgt id='1013'> +1.4557000e+02 </wgt>
<wgt id='1014'> +1.5457000e+02 </wgt>
<wgt id='1015'> +1.5447000e+02 </wgt>
<wgt id='1016'> +1.4674000e+02 </wgt>
<wgt id='1017'> +1.5282000e+02 </wgt>
<wgt id='1018'> +1.5406000e+02 </wgt>
<wgt id='1019'> +1.4965000e+02 </wgt>
<wgt id='1020'> +1.5116000e+02 </wgt>
<wgt id='1021'> +1.5424000e+02 </wgt>
<wgt id='1022'> +1.5523000e+02 </wgt>
<wgt id='1023'> +1.5236000e+02 </wgt>
<wgt id='1024'> +1.4918000e+02 </wgt>
<wgt id='1025'> +1.6334000e+02 </wgt>
<wgt id='1026'> +1.5016000e+02 </wgt>
<wgt id='1027'> +1.5303000e+02 </wgt>
<wgt id='1028'> +1.4960000e+02 </wgt>
<wgt id='1029'> +1.5069000e+02 </wgt>
<wgt id='1030'> +1.4989000e+02 </wgt>
<wgt id='1031'> +1.5062000e+02 </wgt>
<wgt id='1032'> +1.5501000e+02 </wgt>
<wgt id='1033'> +1.5026000e+02 </wgt>
<wgt id='1034'> +1.4649000e+02 </wgt>
<wgt id='1035'> +1.5271000e+02 </wgt>
<wgt id='1036'> +1.5174000e+02 </wgt>
<wgt id='1037'> +1.5597000e+02 </wgt>
<wgt id='1038'> +1.5594000e+02 </wgt>
<wgt id='1039'> +1.5379000e+02 </wgt>
<wgt id='1040'> +1.5326000e+02 </wgt>
<wgt id='1041'> +1.4728000e+02 </wgt>
<wgt id='1042'> +1.5312000e+02 </wgt>
<wgt id='1043'> +1.5213000e+02 </wgt>
<wgt id='1044'> +1.5251000e+02 </wgt>
<wgt id='1045'> +1.5238000e+02 </wgt>
<wgt id='1046'> +1.4991000e+02 </wgt>
<wgt id='1047'> +1.5162000e+02 </wgt>
<wgt id='1048'> +1.5382000e+02 </wgt>
<wgt id='1049'> +1.4941000e+02 </wgt>
<wgt id='1050'> +1.4960000e+02 </wgt>
<wgt id='1051'> +1.5160000e+02 </wgt>
<wgt id='1052'> +1.5130000e+02 </wgt>
<wgt id='1053'> +1.5108000e+02 </wgt>
<wgt id='1054'> +1.4981000e+02 </wgt>
<wgt id='1055'> +1.5328000e+02 </wgt>
<wgt id='1056'> +1.5197000e+02 </wgt>
<wgt id='1057'> +1.5089000e+02 </wgt>
<wgt id='1058'> +1.4780000e+02 </wgt>
<wgt id='1059'> +1.5763000e+02 </wgt>
<wgt id='1060'> +1.4933000e+02 </wgt>
<wgt id='1061'> +1.5346000e+02 </wgt>
<wgt id='1062'> +1.5117000e+02 </wgt>
<wgt id='1063'> +1.5295000e+02 </wgt>
<wgt id='1064'> +1.5162000e+02 </wgt>
<wgt id='1065'> +1.5378000e+02 </wgt>
<wgt id='1066'> +1.4859000e+02 </wgt>
<wgt id='1067'> +1.5384000e+02 </wgt>
<wgt id='1068'> +1.5126000e+02 </wgt>
<wgt id='1069'> +1.6092000e+02 </wgt>
<wgt id='1070'> +1.4914000e+02 </wgt>
<wgt id='1071'> +1.4731000e+02 </wgt>
<wgt id='1072'> +1.5075000e+02 </wgt>
<wgt id='1073'> +1.5392000e+02 </wgt>
<wgt id='1074'> +1.5120000e+02 </wgt>
<wgt id='1075'> +1.4163000e+02 </wgt>
<wgt id='1076'> +1.5250000e+02 </wgt>
<wgt id='1077'> +1.5040000e+02 </wgt>
<wgt id='1078'> +1.4644000e+02 </wgt>
<wgt id='1079'> +1.5177000e+02 </wgt>
<wgt id='1080'> +1.5714000e+02 </wgt>
<wgt id='1081'> +1.5090000e+02 </wgt>
<wgt id='1082'> +1.5190000e+02 </wgt>
<wgt id='1083'> +1.5201000e+02 </wgt>
<wgt id='1084'> +1.4926000e+02 </wgt>
<wgt id='1085'> +1.5426000e+02 </wgt>
<wgt id='1086'> +1.5175000e+02 </wgt>
<wgt id='1087'> +1.4725000e+02 </wgt>
<wgt id='1088'> +1.5042000e+02 </wgt>
<wgt id='1089'> +1.5055000e+02 </wgt>
<wgt id='1090'> +1.5181000e+02 </wgt>
<wgt id='1091'> +1.5673000e+02 </wgt>
<wgt id='1092'> +1.5002000e+02 </wgt>
<wgt id='1093'> +1.4892000e+02 </wgt>
<wgt id='1094'> +1.5457000e+02 </wgt>
<wgt id='1095'> +1.5108000e+02 </wgt>
<wgt id='1096'> +1.5450000e+02 </wgt>
<wgt id='1097'> +1.4839000e+02 </wgt>
<wgt id='1098'> +1.5446000e+02 </wgt>
<wgt id='1099'> +1.5221000e+02 </wgt>
<wgt id='1100'> +1.5762000e+02 </wgt>
<wgt id='1101'> +1.5624000e+02 </wgt>
<wgt id='1102'> +1.5208000e+02 </wgt>
<wgt id='1103'> +1.4868000e+02 </wgt>
<wgt id='1104'> +1.5324000e+02 </wgt>
<wgt id='1105'> +1.5146096e+02 </wgt>
<wgt id='1106'> +6.5235819e+01 </wgt>
<wgt id='1107'> +8.9478880e+01 </wgt>
<wgt id='1108'> +9.0276649e+01 </wgt>
<wgt id='1109'> +7.7561561e+01 </wgt>
<wgt id='1110'> +1.0696598e+02 </wgt>
<wgt id='1111'> +6.1105258e+01 </wgt>
<wgt id='1112'> +5.2797204e+01 </wgt>
<wgt id='1113'> +7.1964056e+01 </wgt>
<wgt id='1114'> +7.2581752e+01 </wgt>
<wgt id='1115'> +7.0938503e+01 </wgt>
<wgt id='1116'> +7.2129665e+01 </wgt>
<wgt id='1117'> +7.3650596e+01 </wgt>
<wgt id='1118'> +7.2981626e+01 </wgt>
<wgt id='1119'> +7.2913222e+01 </wgt>
<wgt id='1120'> +7.2636527e+01 </wgt>
<wgt id='1121'> +7.1932924e+01 </wgt>
<wgt id='1122'> +7.1965087e+01 </wgt>
<wgt id='1123'> +7.3844279e+01 </wgt>
<wgt id='1124'> +7.3966280e+01 </wgt>
<wgt id='1125'> +7.4055150e+01 </wgt>
<wgt id='1126'> +7.1402533e+01 </wgt>
<wgt id='1127'> +7.2162918e+01 </wgt>
<wgt id='1128'> +7.1184831e+01 </wgt>
<wgt id='1129'> +7.4657408e+01 </wgt>
<wgt id='1130'> +7.4313224e+01 </wgt>
<wgt id='1131'> +7.4040372e+01 </wgt>
<wgt id='1132'> +7.2433428e+01 </wgt>
<wgt id='1133'> +7.2154719e+01 </wgt>
<wgt id='1134'> +7.3423600e+01 </wgt>
<wgt id='1135'> +7.0847053e+01 </wgt>
<wgt id='1136'> +7.2230170e+01 </wgt>
<wgt id='1137'> +7.1825568e+01 </wgt>
<wgt id='1138'> +7.1356007e+01 </wgt>
<wgt id='1139'> +7.1498933e+01 </wgt>
<wgt id='1140'> +7.3105921e+01 </wgt>
<wgt id='1141'> +7.2448522e+01 </wgt>
<wgt id='1142'> +7.1468813e+01 </wgt>
<wgt id='1143'> +7.3712100e+01 </wgt>
<wgt id='1144'> +7.3799100e+01 </wgt>
<wgt id='1145'> +7.2568369e+01 </wgt>
<wgt id='1146'> +7.2522747e+01 </wgt>
<wgt id='1147'> +7.1648855e+01 </wgt>
<wgt id='1148'> +7.1360455e+01 </wgt>
<wgt id='1149'> +7.4634607e+01 </wgt>
<wgt id='1150'> +7.1933359e+01 </wgt>
<wgt id='1151'> +7.4029127e+01 </wgt>
<wgt id='1152'> +7.3102885e+01 </wgt>
<wgt id='1153'> +7.2213716e+01 </wgt>
<wgt id='1154'> +7.2213206e+01 </wgt>
<wgt id='1155'> +7.3295914e+01 </wgt>
<wgt id='1156'> +7.0547777e+01 </wgt>
<wgt id='1157'> +7.2221531e+01 </wgt>
<wgt id='1158'> +7.1069007e+01 </wgt>
<wgt id='1159'> +7.2790794e+01 </wgt>
<wgt id='1160'> +7.3192406e+01 </wgt>
<wgt id='1161'> +7.0573340e+01 </wgt>
<wgt id='1162'> +7.0800154e+01 </wgt>
<wgt id='1163'> +7.3473685e+01 </wgt>
<wgt id='1164'> +7.3868965e+01 </wgt>
<wgt id='1165'> +7.1855594e+01 </wgt>
<wgt id='1166'> +7.1687447e+01 </wgt>
<wgt id='1167'> +7.2437622e+01 </wgt>
<wgt id='1168'> +7.2014744e+01 </wgt>
<wgt id='1169'> +7.1242089e+01 </wgt>
<wgt id='1170'> +7.2022022e+01 </wgt>
<wgt id='1171'> +7.2351262e+01 </wgt>
<wgt id='1172'> +7.1506114e+01 </wgt>
<wgt id='1173'> +7.5285140e+01 </wgt>
<wgt id='1174'> +7.2854932e+01 </wgt>
<wgt id='1175'> +7.2329232e+01 </wgt>
<wgt id='1176'> +7.2233435e+01 </wgt>
<wgt id='1177'> +7.2090842e+01 </wgt>
<wgt id='1178'> +7.1842127e+01 </wgt>
<wgt id='1179'> +7.2347954e+01 </wgt>
<wgt id='1180'> +7.2500112e+01 </wgt>
<wgt id='1181'> +7.0347157e+01 </wgt>
<wgt id='1182'> +7.3796167e+01 </wgt>
<wgt id='1183'> +7.1596051e+01 </wgt>
<wgt id='1184'> +7.0387257e+01 </wgt>
<wgt id='1185'> +7.4568076e+01 </wgt>
<wgt id='1186'> +7.4464158e+01 </wgt>
<wgt id='1187'> +7.3780217e+01 </wgt>
<wgt id='1188'> +7.4777915e+01 </wgt>
<wgt id='1189'> +7.3682405e+01 </wgt>
<wgt id='1190'> +7.4227091e+01 </wgt>
<wgt id='1191'> +7.1829265e+01 </wgt>
<wgt id='1192'> +7.3130958e+01 </wgt>
<wgt id='1193'> +7.3017277e+01 </wgt>
<wgt id='1194'> +7.1397406e+01 </wgt>
<wgt id='1195'> +7.0460879e+01 </wgt>
<wgt id='1196'> +7.4313224e+01 </wgt>
<wgt id='1197'> +7.2028273e+01 </wgt>
<wgt id='1198'> +7.3021081e+01 </wgt>
<wgt id='1199'> +7.5012666e+01 </wgt>
<wgt id='1200'> +6.9651456e+01 </wgt>
<wgt id='1201'> +7.3806405e+01 </wgt>
<wgt id='1202'> +7.2879193e+01 </wgt>
<wgt id='1203'> +7.5565764e+01 </wgt>
<wgt id='1204'> +7.1094314e+01 </wgt>
<wgt id='1205'> +7.1626883e+01 </wgt>
<wgt id='1206'> +7.4311999e+01 </wgt>
<wgt id='1207'> +7.3909497e+01 </wgt>
<wgt id='1208'> +7.2224722e+01 </wgt>
<wgt id='1209'> +7.1597446e+01 </wgt>
<wgt id='1210'> +7.1895917e+01 </wgt>
<wgt id='1211'> +7.1138842e+01 </wgt>
<wgt id='1212'> +7.3362579e+01 </wgt>
<wgt id='1213'> +7.2720044e+01 </wgt>
<wgt id='1214'> +7.3211329e+01 </wgt>
<wgt id='1215'> +7.5512587e+01 </wgt>
<wgt id='1216'> +7.2622760e+01 </wgt>
<wgt id='1217'> +7.2842345e+01 </wgt>
<wgt id='1218'> +7.2406317e+01 </wgt>
<wgt id='1219'> +7.2858377e+01 </wgt>
<wgt id='1220'> +7.2783637e+01 </wgt>
<wgt id='1221'> +7.2967345e+01 </wgt>
<wgt id='1222'> +7.2697873e+01 </wgt>
<wgt id='1223'> +7.2849007e+01 </wgt>
<wgt id='1224'> +7.2444676e+01 </wgt>
<wgt id='1225'> +7.2676135e+01 </wgt>
<wgt id='1226'> +7.2364317e+01 </wgt>
<wgt id='1227'> +7.2687512e+01 </wgt>
<wgt id='1228'> +7.3080381e+01 </wgt>
<wgt id='1229'> +7.2192713e+01 </wgt>
<wgt id='1230'> +7.2921746e+01 </wgt>
<wgt id='1231'> +7.2750858e+01 </wgt>
<wgt id='1232'> +7.2678827e+01 </wgt>
<wgt id='1233'> +7.2936764e+01 </wgt>
<wgt id='1234'> +7.2790787e+01 </wgt>
<wgt id='1235'> +7.2297613e+01 </wgt>
<wgt id='1236'> +7.2445557e+01 </wgt>
<wgt id='1237'> +7.2335533e+01 </wgt>
<wgt id='1238'> +7.2602198e+01 </wgt>
<wgt id='1239'> +7.2470191e+01 </wgt>
<wgt id='1240'> +7.2475154e+01 </wgt>
<wgt id='1241'> +7.2625895e+01 </wgt>
<wgt id='1242'> +7.2729088e+01 </wgt>
<wgt id='1243'> +7.2648916e+01 </wgt>
<wgt id='1244'> +7.2442324e+01 </wgt>
<wgt id='1245'> +7.2596215e+01 </wgt>
<wgt id='1246'> +7.2713905e+01 </wgt>
<wgt id='1247'> +7.2659131e+01 </wgt>
<wgt id='1248'> +7.2662333e+01 </wgt>
<wgt id='1249'> +7.2668571e+01 </wgt>
<wgt id='1250'> +7.2654520e+01 </wgt>
<wgt id='1251'> +7.2669559e+01 </wgt>
<wgt id='1252'> +7.2641569e+01 </wgt>
<wgt id='1253'> +7.2629948e+01 </wgt>
<wgt id='1254'> +7.2623193e+01 </wgt>
<wgt id='1255'> +7.2631971e+01 </wgt>
<wgt id='1256'> +7.2629275e+01 </wgt>
<wgt id='1257'> +7.2621594e+01 </wgt>
<wgt id='1258'> +7.2565706e+01 </wgt>
<wgt id='1259'> +7.2568741e+01 </wgt>
<wgt id='1260'> +7.2653291e+01 </wgt>
<wgt id='1261'> +7.2665457e+01 </wgt>
<wgt id='1262'> +7.2647706e+01 </wgt>
<wgt id='1263'> +7.2602907e+01 </wgt>
<wgt id='1264'> +7.2653095e+01 </wgt>
<wgt id='1265'> +7.2604830e+01 </wgt>
<wgt id='1266'> +7.2614938e+01 </wgt>
<wgt id='1267'> +7.2684484e+01 </wgt>
<wgt id='1268'> +7.2613590e+01 </wgt>
<wgt id='1269'> +7.2615794e+01 </wgt>
<wgt id='1270'> +7.2610783e+01 </wgt>
<wgt id='1271'> +7.2638913e+01 </wgt>
<wgt id='1272'> +7.2635373e+01 </wgt>
<wgt id='1273'> +7.2610004e+01 </wgt>
<wgt id='1274'> +7.2609058e+01 </wgt>
<wgt id='1275'> +7.2627940e+01 </wgt>
<wgt id='1276'> +7.2631056e+01 </wgt>
<wgt id='1277'> +7.2650995e+01 </wgt>
<wgt id='1278'> +7.2628099e+01 </wgt>
<wgt id='1279'> +7.2630139e+01 </wgt>
<wgt id='1280'> +7.2623101e+01 </wgt>
<wgt id='1281'> +7.2630819e+01 </wgt>
<wgt id='1282'> +7.2633207e+01 </wgt>
<wgt id='1283'> +7.2599917e+01 </wgt>
<wgt id='1284'> +7.2621219e+01 </wgt>
<wgt id='1285'> +7.2601688e+01 </wgt>
<wgt id='1286'> +7.2599911e+01 </wgt>
<wgt id='1287'> +7.2623146e+01 </wgt>
<wgt id='1288'> +7.2638746e+01 </wgt>
<wgt id='1289'> +7.2624709e+01 </wgt>
<wgt id='1290'> +7.2634514e+01 </wgt>
<wgt id='1291'> +7.2632261e+01 </wgt>
<wgt id='1292'> +7.2625384e+01 </wgt>
<wgt id='1293'> +7.2618606e+01 </wgt>
<wgt id='1294'> +7.2637714e+01 </wgt>
<wgt id='1295'> +7.2618878e+01 </wgt>
<wgt id='1296'> +7.2614690e+01 </wgt>
<wgt id='1297'> +7.2622030e+01 </wgt>
<wgt id='1298'> +7.2617737e+01 </wgt>
<wgt id='1299'> +7.2617713e+01 </wgt>
<wgt id='1300'> +7.2613909e+01 </wgt>
<wgt id='1301'> +7.2624001e+01 </wgt>
<wgt id='1302'> +7.2619717e+01 </wgt>
<wgt id='1303'> +7.2616847e+01 </wgt>
<wgt id='1304'> +7.2618381e+01 </wgt>
<wgt id='1305'> +7.2623054e+01 </wgt>
<wgt id='1306'> +7.2623440e+01 </wgt>
<wgt id='1307'> +7.2625444e+01 </wgt>
<wgt id='1308'> +7.2621266e+01 </wgt>
<wgt id='1309'> +7.2621524e+01 </wgt>
<wgt id='1310'> +7.2629880e+01 </wgt>
<wgt id='1311'> +7.2625795e+01 </wgt>
<wgt id='1312'> +7.2623048e+01 </wgt>
<wgt id='1313'> +7.2615169e+01 </wgt>
<wgt id='1314'> +7.2625345e+01 </wgt>
<wgt id='1315'> +7.2628724e+01 </wgt>
<wgt id='1316'> +7.2625661e+01 </wgt>
<wgt id='1317'> +7.0255598e+01 </wgt>
<wgt id='1318'> +7.5245370e+01 </wgt>
<wgt id='1319'> +6.4703836e+01 </wgt>
<wgt id='1320'> +7.0796932e+01 </wgt>
<wgt id='1321'> +7.0832196e+01 </wgt>
<wgt id='1322'> +7.0959699e+01 </wgt>
<wgt id='1323'> +7.2088305e+01 </wgt>
<wgt id='1324'> +6.9785234e+01 </wgt>
<wgt id='1325'> +7.0853098e+01 </wgt>
<wgt id='1326'> +7.0742923e+01 </wgt>
<wgt id='1327'> +7.1800557e+01 </wgt>
<wgt id='1328'> +7.0028968e+01 </wgt>
<wgt id='1329'> +6.9586300e+01 </wgt>
<wgt id='1330'> +7.1544957e+01 </wgt>
<wgt id='1331'> +7.2265795e+01 </wgt>
<wgt id='1332'> +6.9867554e+01 </wgt>
<wgt id='1333'> +6.8585226e+01 </wgt>
<wgt id='1334'> +7.2101233e+01 </wgt>
<wgt id='1335'> +7.1813856e+01 </wgt>
<wgt id='1336'> +7.0099448e+01 </wgt>
<wgt id='1337'> +6.9837479e+01 </wgt>
<wgt id='1338'> +7.1932453e+01 </wgt>
<wgt id='1339'> +7.1827329e+01 </wgt>
<wgt id='1340'> +6.9674108e+01 </wgt>
<wgt id='1341'> +7.1063750e+01 </wgt>
<wgt id='1342'> +7.0254217e+01 </wgt>
<wgt id='1343'> +7.0376449e+01 </wgt>
<wgt id='1344'> +7.1193310e+01 </wgt>
<wgt id='1345'> +7.0433798e+01 </wgt>
<wgt id='1346'> +7.1090166e+01 </wgt>
<wgt id='1347'> +7.0615290e+01 </wgt>
<wgt id='1348'> +7.1045953e+01 </wgt>
<wgt id='1349'> +7.0302005e+01 </wgt>
<wgt id='1350'> +7.0969581e+01 </wgt>
<wgt id='1351'> +7.0981262e+01 </wgt>
<wgt id='1352'> +7.0556746e+01 </wgt>
<wgt id='1353'> +7.0550095e+01 </wgt>
<wgt id='1354'> +7.1323390e+01 </wgt>
<wgt id='1355'> +7.1434972e+01 </wgt>
<wgt id='1356'> +7.0183351e+01 </wgt>
<wgt id='1357'> +7.1322234e+01 </wgt>
<wgt id='1358'> +6.9960714e+01 </wgt>
<wgt id='1359'> +7.0840456e+01 </wgt>
<wgt id='1360'> +7.0721889e+01 </wgt>
<wgt id='1361'> +7.1266318e+01 </wgt>
<wgt id='1362'> +7.0378914e+01 </wgt>
<wgt id='1363'> +7.1502251e+01 </wgt>
<wgt id='1364'> +7.0306439e+01 </wgt>
<wgt id='1365'> +6.9866807e+01 </wgt>
<wgt id='1366'> +7.0678198e+01 </wgt>
<wgt id='1367'> +6.9953565e+01 </wgt>
<wgt id='1368'> +7.0981886e+01 </wgt>
<wgt id='1369'> +7.0603566e+01 </wgt>
<wgt id='1370'> +6.9496561e+01 </wgt>
<wgt id='1371'> +7.0756533e+01 </wgt>
<wgt id='1372'> +7.0709033e+01 </wgt>
<wgt id='1373'> +6.9019751e+01 </wgt>
<wgt id='1374'> +7.1542111e+01 </wgt>
<wgt id='1375'> +7.0119521e+01 </wgt>
<wgt id='1376'> +7.1646776e+01 </wgt>
<wgt id='1377'> +6.8318858e+01 </wgt>
<wgt id='1378'> +7.3177621e+01 </wgt>
<wgt id='1379'> +7.1340103e+01 </wgt>
<wgt id='1380'> +6.8952028e+01 </wgt>
<wgt id='1381'> +7.3540507e+01 </wgt>
<wgt id='1382'> +5.5036329e+01 </wgt>
<wgt id='1383'> +7.2808424e+01 </wgt>
<wgt id='1384'> +7.2005711e+01 </wgt>
<wgt id='1385'> +8.3754369e+01 </wgt>
<wgt id='1386'> +8.3846850e+01 </wgt>
<wgt id='1387'> +8.3649248e+01 </wgt>
<wgt id='1388'> +8.3395807e+01 </wgt>
<wgt id='1389'> +8.4375280e+01 </wgt>
<wgt id='1390'> +8.3549925e+01 </wgt>
<wgt id='1391'> +8.3995123e+01 </wgt>
<wgt id='1392'> +8.3612650e+01 </wgt>
<wgt id='1393'> +8.3854198e+01 </wgt>
<wgt id='1394'> +8.3522577e+01 </wgt>
<wgt id='1395'> +8.4041731e+01 </wgt>
<wgt id='1396'> +8.3093104e+01 </wgt>
<wgt id='1397'> +8.4101022e+01 </wgt>
<wgt id='1398'> +8.4015991e+01 </wgt>
<wgt id='1399'> +8.3554755e+01 </wgt>
<wgt id='1400'> +8.3495420e+01 </wgt>
<wgt id='1401'> +8.3947778e+01 </wgt>
<wgt id='1402'> +8.3583649e+01 </wgt>
<wgt id='1403'> +8.3836713e+01 </wgt>
<wgt id='1404'> +8.4630426e+01 </wgt>
<wgt id='1405'> +8.3331026e+01 </wgt>
<wgt id='1406'> +8.3655063e+01 </wgt>
<wgt id='1407'> +8.3935842e+01 </wgt>
<wgt id='1408'> +8.3727144e+01 </wgt>
<wgt id='1409'> +8.3817085e+01 </wgt>
<wgt id='1410'> +8.3717024e+01 </wgt>
<wgt id='1411'> +8.3803538e+01 </wgt>
<wgt id='1412'> +8.4296081e+01 </wgt>
<wgt id='1413'> +8.3095758e+01 </wgt>
<wgt id='1414'> +8.4091109e+01 </wgt>
<wgt id='1415'> +8.3540240e+01 </wgt>
<wgt id='1416'> +8.3856816e+01 </wgt>
<wgt id='1417'> +8.3694051e+01 </wgt>
<wgt id='1418'> +8.4041372e+01 </wgt>
<wgt id='1419'> +8.3141316e+01 </wgt>
<wgt id='1420'> +8.3336281e+01 </wgt>
<wgt id='1421'> +8.3771609e+01 </wgt>
<wgt id='1422'> +8.3949394e+01 </wgt>
<wgt id='1423'> +8.3532087e+01 </wgt>
<wgt id='1424'> +8.3960735e+01 </wgt>
<wgt id='1425'> +8.3299974e+01 </wgt>
<wgt id='1426'> +8.3900096e+01 </wgt>
<wgt id='1427'> +8.3621872e+01 </wgt>
<wgt id='1428'> +8.4043273e+01 </wgt>
<wgt id='1429'> +8.3815819e+01 </wgt>
<wgt id='1430'> +8.3750647e+01 </wgt>
<wgt id='1431'> +8.3760242e+01 </wgt>
<wgt id='1432'> +8.3709864e+01 </wgt>
<wgt id='1433'> +8.3798333e+01 </wgt>
<wgt id='1434'> +8.3710326e+01 </wgt>
<wgt id='1435'> +8.3801589e+01 </wgt>
<wgt id='1436'> +0.0000000e+00 </wgt>
<wgt id='1437'> +0.0000000e+00 </wgt>
<wgt id='1438'> +0.0000000e+00 </wgt>
<wgt id='1439'> +0.0000000e+00 </wgt>
<wgt id='1440'> +0.0000000e+00 </wgt>
<wgt id='1441'> +0.0000000e+00 </wgt>
<wgt id='1442'> +0.0000000e+00 </wgt>
<wgt id='1443'> +0.0000000e+00 </wgt>
<wgt id='1444'> +0.0000000e+00 </wgt>
<wgt id='1445'> +0.0000000e+00 </wgt>
<wgt id='1446'> +0.0000000e+00 </wgt>
<wgt id='1447'> +0.0000000e+00 </wgt>
<wgt id='1448'> +0.0000000e+00 </wgt>
<wgt id='1449'> +0.0000000e+00 </wgt>
<wgt id='1450'> +0.0000000e+00 </wgt>
<wgt id='1451'> +0.0000000e+00 </wgt>
<wgt id='1452'> +0.0000000e+00 </wgt>
<wgt id='1453'> +0.0000000e+00 </wgt>
<wgt id='1454'> +0.0000000e+00 </wgt>
<wgt id='1455'> +0.0000000e+00 </wgt>
<wgt id='1456'> +0.0000000e+00 </wgt>
<wgt id='1457'> +0.0000000e+00 </wgt>
<wgt id='1458'> +0.0000000e+00 </wgt>
<wgt id='1459'> +0.0000000e+00 </wgt>
<wgt id='1460'> +0.0000000e+00 </wgt>
<wgt id='1461'> +0.0000000e+00 </wgt>
<wgt id='1462'> +0.0000000e+00 </wgt>
<wgt id='1463'> +0.0000000e+00 </wgt>
<wgt id='1464'> +0.0000000e+00 </wgt>
<wgt id='1465'> +7.5336995e+01 </wgt>
<wgt id='1466'> +7.3173033e+01 </wgt>
<wgt id='1467'> +7.2906852e+01 </wgt>
<wgt id='1468'> +7.4062190e+01 </wgt>
<wgt id='1469'> +7.3418740e+01 </wgt>
<wgt id='1470'> +7.2871085e+01 </wgt>
<wgt id='1471'> +7.3005843e+01 </wgt>
<wgt id='1472'> +7.3487177e+01 </wgt>
<wgt id='1473'> +7.2877608e+01 </wgt>
<wgt id='1474'> +7.2869338e+01 </wgt>
<wgt id='1475'> +7.3358331e+01 </wgt>
<wgt id='1476'> +7.5035687e+01 </wgt>
<wgt id='1477'> +7.3222079e+01 </wgt>
<wgt id='1478'> +7.2315598e+01 </wgt>
<wgt id='1479'> +7.3284527e+01 </wgt>
<wgt id='1480'> +7.2066993e+01 </wgt>
<wgt id='1481'> +7.3504816e+01 </wgt>
<wgt id='1482'> +7.3021190e+01 </wgt>
<wgt id='1483'> +7.2858771e+01 </wgt>
<wgt id='1484'> +7.3076215e+01 </wgt>
<wgt id='1485'> +7.2871200e+01 </wgt>
<wgt id='1486'> +7.2983260e+01 </wgt>
<wgt id='1487'> +7.3191072e+01 </wgt>
<wgt id='1488'> +7.3422627e+01 </wgt>
<wgt id='1489'> +7.3032440e+01 </wgt>
<wgt id='1490'> +7.3230554e+01 </wgt>
<wgt id='1491'> +7.3426349e+01 </wgt>
<wgt id='1492'> +7.3245838e+01 </wgt>
<wgt id='1493'> +7.3098115e+01 </wgt>
<wgt id='1494'> +7.3199403e+01 </wgt>
<wgt id='1495'> +7.3148329e+01 </wgt>
<wgt id='1496'> +7.3283441e+01 </wgt>
<wgt id='1497'> +7.3171111e+01 </wgt>
<wgt id='1498'> +7.3135068e+01 </wgt>
<wgt id='1499'> +7.3165161e+01 </wgt>
<wgt id='1500'> +7.3336135e+01 </wgt>
<wgt id='1501'> +7.3212647e+01 </wgt>
<wgt id='1502'> +7.3158483e+01 </wgt>
<wgt id='1503'> +7.3195310e+01 </wgt>
<wgt id='1504'> +7.3192642e+01 </wgt>
<wgt id='1505'> +7.3276522e+01 </wgt>
<wgt id='1506'> +7.3298303e+01 </wgt>
<wgt id='1507'> +7.3255910e+01 </wgt>
<wgt id='1508'> +7.3228205e+01 </wgt>
<wgt id='1509'> +7.3110293e+01 </wgt>
<wgt id='1510'> +7.3338045e+01 </wgt>
<wgt id='1511'> +7.3195837e+01 </wgt>
<wgt id='1512'> +7.3185577e+01 </wgt>
<wgt id='1513'> +7.3111509e+01 </wgt>
<wgt id='1514'> +7.3208951e+01 </wgt>
<wgt id='1515'> +7.3210248e+01 </wgt>
<wgt id='1516'> +7.3054939e+01 </wgt>
<wgt id='1517'> +7.3160873e+01 </wgt>
<wgt id='1518'> +7.3078568e+01 </wgt>
<wgt id='1519'> +7.3046662e+01 </wgt>
<wgt id='1520'> +7.3093467e+01 </wgt>
<wgt id='1521'> +7.3194825e+01 </wgt>
<wgt id='1522'> +7.3134721e+01 </wgt>
<wgt id='1523'> +7.3227412e+01 </wgt>
<wgt id='1524'> +7.3237188e+01 </wgt>
<wgt id='1525'> +7.3208890e+01 </wgt>
<wgt id='1526'> +7.3116698e+01 </wgt>
<wgt id='1527'> +7.3268210e+01 </wgt>
<wgt id='1528'> +7.3200649e+01 </wgt>
<wgt id='1529'> +7.3153404e+01 </wgt>
<wgt id='1530'> +7.3165491e+01 </wgt>
<wgt id='1531'> +7.3218256e+01 </wgt>
<wgt id='1532'> +7.3252395e+01 </wgt>
<wgt id='1533'> +7.3184865e+01 </wgt>
<wgt id='1534'> +7.3229091e+01 </wgt>
<wgt id='1535'> +7.3202007e+01 </wgt>
<wgt id='1536'> +7.3109161e+01 </wgt>
<wgt id='1537'> +7.3114165e+01 </wgt>
<wgt id='1538'> +7.3156650e+01 </wgt>
<wgt id='1539'> +7.3181045e+01 </wgt>
<wgt id='1540'> +7.3059580e+01 </wgt>
<wgt id='1541'> +7.3150688e+01 </wgt>
<wgt id='1542'> +7.3200641e+01 </wgt>
<wgt id='1543'> +7.3112661e+01 </wgt>
<wgt id='1544'> +7.3134414e+01 </wgt>
<wgt id='1545'> +7.3206151e+01 </wgt>
<wgt id='1546'> +7.3170531e+01 </wgt>
<wgt id='1547'> +7.3223872e+01 </wgt>
<wgt id='1548'> +7.3187576e+01 </wgt>
<wgt id='1549'> +7.3144875e+01 </wgt>
<wgt id='1550'> +7.3229385e+01 </wgt>
<wgt id='1551'> +7.3176078e+01 </wgt>
<wgt id='1552'> +7.3242672e+01 </wgt>
<wgt id='1553'> +7.3211721e+01 </wgt>
<wgt id='1554'> +7.3209909e+01 </wgt>
<wgt id='1555'> +7.3161641e+01 </wgt>
<wgt id='1556'> +7.3198551e+01 </wgt>
<wgt id='1557'> +7.3122889e+01 </wgt>
<wgt id='1558'> +7.3160996e+01 </wgt>
<wgt id='1559'> +7.3196353e+01 </wgt>
<wgt id='1560'> +7.3132962e+01 </wgt>
<wgt id='1561'> +7.3141999e+01 </wgt>
<wgt id='1562'> +7.3202960e+01 </wgt>
<wgt id='1563'> +7.3182797e+01 </wgt>
<wgt id='1564'> +7.3169890e+01 </wgt>
<wgt id='1565'> +7.3162186e+01 </wgt>
<wgt id='1566'> +7.3175403e+01 </wgt>
<wgt id='1567'> +7.1418951e+01 </wgt>
<wgt id='1568'> +7.4764204e+01 </wgt>
<wgt id='1569'> +7.3004828e+01 </wgt>
<wgt id='1570'> +7.2697597e+01 </wgt>
<wgt id='1571'> +7.3670985e+01 </wgt>
<wgt id='1572'> +7.1932732e+01 </wgt>
<wgt id='1573'> +7.2674602e+01 </wgt>
<wgt id='1574'> +7.3268272e+01 </wgt>
<wgt id='1575'> +7.2780258e+01 </wgt>
<wgt id='1576'> +7.3201962e+01 </wgt>
<wgt id='1577'> +7.3098868e+01 </wgt>
<wgt id='1578'> +7.2820323e+01 </wgt>
<wgt id='1579'> +7.2373553e+01 </wgt>
<wgt id='1580'> +7.4299305e+01 </wgt>
<wgt id='1581'> +7.2577957e+01 </wgt>
<wgt id='1582'> +7.1684500e+01 </wgt>
<wgt id='1583'> +7.2602545e+01 </wgt>
<wgt id='1584'> +7.3032155e+01 </wgt>
<wgt id='1585'> +7.3980299e+01 </wgt>
<wgt id='1586'> +7.2703011e+01 </wgt>
<wgt id='1587'> +7.2888661e+01 </wgt>
<wgt id='1588'> +7.3122667e+01 </wgt>
<wgt id='1589'> +7.3389814e+01 </wgt>
<wgt id='1590'> +7.2961663e+01 </wgt>
<wgt id='1591'> +7.2974134e+01 </wgt>
<wgt id='1592'> +7.2906452e+01 </wgt>
<wgt id='1593'> +7.2847077e+01 </wgt>
<wgt id='1594'> +7.3044058e+01 </wgt>
<wgt id='1595'> +7.2918220e+01 </wgt>
<wgt id='1596'> +7.3032087e+01 </wgt>
<wgt id='1597'> +7.3077064e+01 </wgt>
<wgt id='1598'> +7.2973371e+01 </wgt>
<wgt id='1599'> +7.2878487e+01 </wgt>
<wgt id='1600'> +7.3040034e+01 </wgt>
<wgt id='1601'> +7.2948139e+01 </wgt>
<wgt id='1602'> +7.2939925e+01 </wgt>
<wgt id='1603'> +7.3039518e+01 </wgt>
<wgt id='1604'> +7.3021710e+01 </wgt>
<wgt id='1605'> +7.3049195e+01 </wgt>
<wgt id='1606'> +7.2980231e+01 </wgt>
<wgt id='1607'> +7.2992908e+01 </wgt>
<wgt id='1608'> +7.2935569e+01 </wgt>
<wgt id='1609'> +7.2945767e+01 </wgt>
<wgt id='1610'> +7.3089443e+01 </wgt>
<wgt id='1611'> +7.3103461e+01 </wgt>
<wgt id='1612'> +7.2925486e+01 </wgt>
<wgt id='1613'> +7.2985987e+01 </wgt>
<wgt id='1614'> +7.3097059e+01 </wgt>
<wgt id='1615'> +7.2946271e+01 </wgt>
<wgt id='1616'> +7.3079982e+01 </wgt>
<wgt id='1617'> +7.3072949e+01 </wgt>
<wgt id='1618'> +7.3029398e+01 </wgt>
<wgt id='1619'> +7.3005370e+01 </wgt>
<wgt id='1620'> +7.2991513e+01 </wgt>
<wgt id='1621'> +7.3052977e+01 </wgt>
<wgt id='1622'> +7.2919356e+01 </wgt>
<wgt id='1623'> +7.2964367e+01 </wgt>
<wgt id='1624'> +7.3001884e+01 </wgt>
<wgt id='1625'> +7.3020382e+01 </wgt>
<wgt id='1626'> +7.3062618e+01 </wgt>
<wgt id='1627'> +7.2902297e+01 </wgt>
<wgt id='1628'> +7.2971208e+01 </wgt>
<wgt id='1629'> +7.2983865e+01 </wgt>
<wgt id='1630'> +7.3012621e+01 </wgt>
<wgt id='1631'> +7.3017942e+01 </wgt>
<wgt id='1632'> +7.2958147e+01 </wgt>
<wgt id='1633'> +7.3074681e+01 </wgt>
<wgt id='1634'> +7.2958631e+01 </wgt>
<wgt id='1635'> +7.2967527e+01 </wgt>
<wgt id='1636'> +7.3009238e+01 </wgt>
<wgt id='1637'> +7.3018592e+01 </wgt>
<wgt id='1638'> +7.3024454e+01 </wgt>
<wgt id='1639'> +7.2991635e+01 </wgt>
<wgt id='1640'> +7.3018230e+01 </wgt>
<wgt id='1641'> +7.3001795e+01 </wgt>
<wgt id='1642'> +7.3014256e+01 </wgt>
<wgt id='1643'> +7.3013027e+01 </wgt>
<wgt id='1644'> +7.3027310e+01 </wgt>
<wgt id='1645'> +7.2989946e+01 </wgt>
<wgt id='1646'> +7.3005883e+01 </wgt>
<wgt id='1647'> +7.2955741e+01 </wgt>
<wgt id='1648'> +7.2993479e+01 </wgt>
<wgt id='1649'> +7.3083712e+01 </wgt>
<wgt id='1650'> +7.3019663e+01 </wgt>
<wgt id='1651'> +7.3024692e+01 </wgt>
<wgt id='1652'> +7.3008360e+01 </wgt>
<wgt id='1653'> +7.2977954e+01 </wgt>
<wgt id='1654'> +7.2954034e+01 </wgt>
<wgt id='1655'> +7.3039111e+01 </wgt>
<wgt id='1656'> +7.2925032e+01 </wgt>
<wgt id='1657'> +7.2967465e+01 </wgt>
<wgt id='1658'> +7.2967226e+01 </wgt>
<wgt id='1659'> +7.2989536e+01 </wgt>
<wgt id='1660'> +7.2960477e+01 </wgt>
<wgt id='1661'> +7.2971934e+01 </wgt>
<wgt id='1662'> +7.2995663e+01 </wgt>
<wgt id='1663'> +7.2961075e+01 </wgt>
<wgt id='1664'> +7.2992527e+01 </wgt>
<wgt id='1665'> +7.3022788e+01 </wgt>
<wgt id='1666'> +7.3014851e+01 </wgt>
<wgt id='1667'> +7.2973451e+01 </wgt>
<wgt id='1668'> +7.3010801e+01 </wgt>
<wgt id='1669'> +7.3016666e+01 </wgt>
<wgt id='1670'> +7.1446626e+01 </wgt>
<wgt id='1671'> +7.4244762e+01 </wgt>
<wgt id='1672'> +7.3168197e+01 </wgt>
<wgt id='1673'> +7.3726167e+01 </wgt>
<wgt id='1674'> +7.2460399e+01 </wgt>
<wgt id='1675'> +7.3137501e+01 </wgt>
<wgt id='1676'> +7.1908762e+01 </wgt>
<wgt id='1677'> +7.4971985e+01 </wgt>
<wgt id='1678'> +7.2888207e+01 </wgt>
<wgt id='1679'> +7.3162817e+01 </wgt>
<wgt id='1680'> +7.3387624e+01 </wgt>
<wgt id='1681'> +7.2899305e+01 </wgt>
<wgt id='1682'> +7.3471898e+01 </wgt>
<wgt id='1683'> +7.3019733e+01 </wgt>
<wgt id='1684'> +7.3350478e+01 </wgt>
<wgt id='1685'> +7.3266960e+01 </wgt>
<wgt id='1686'> +7.2956209e+01 </wgt>
<wgt id='1687'> +7.3087740e+01 </wgt>
<wgt id='1688'> +7.2781894e+01 </wgt>
<wgt id='1689'> +7.3304795e+01 </wgt>
<wgt id='1690'> +7.3352328e+01 </wgt>
<wgt id='1691'> +7.3239621e+01 </wgt>
<wgt id='1692'> +7.3255726e+01 </wgt>
<wgt id='1693'> +7.3111458e+01 </wgt>
<wgt id='1694'> +7.3139183e+01 </wgt>
<wgt id='1695'> +7.3173094e+01 </wgt>
<wgt id='1696'> +7.2965198e+01 </wgt>
<wgt id='1697'> +7.3225177e+01 </wgt>
<wgt id='1698'> +7.3389293e+01 </wgt>
<wgt id='1699'> +7.3353255e+01 </wgt>
<wgt id='1700'> +7.3646722e+01 </wgt>
<wgt id='1701'> +7.3353296e+01 </wgt>
<wgt id='1702'> +7.3139958e+01 </wgt>
<wgt id='1703'> +7.1418951e+01 </wgt>
<wgt id='1704'> +7.4764204e+01 </wgt>
<wgt id='1705'> +7.2997300e+01 </wgt>
<wgt id='1706'> +7.2243053e+01 </wgt>
<wgt id='1707'> +7.3512223e+01 </wgt>
<wgt id='1708'> +7.2802415e+01 </wgt>
<wgt id='1709'> +7.4059060e+01 </wgt>
<wgt id='1710'> +7.1850865e+01 </wgt>
<wgt id='1711'> +7.2923748e+01 </wgt>
<wgt id='1712'> +7.2736101e+01 </wgt>
<wgt id='1713'> +7.2552637e+01 </wgt>
<wgt id='1714'> +7.2477746e+01 </wgt>
<wgt id='1715'> +7.3143977e+01 </wgt>
<wgt id='1716'> +7.2976015e+01 </wgt>
<wgt id='1717'> +7.3223367e+01 </wgt>
<wgt id='1718'> +7.3281086e+01 </wgt>
<wgt id='1719'> +7.2855924e+01 </wgt>
<wgt id='1720'> +7.2869524e+01 </wgt>
<wgt id='1721'> +7.2773134e+01 </wgt>
<wgt id='1722'> +7.3585253e+01 </wgt>
<wgt id='1723'> +7.2878510e+01 </wgt>
<wgt id='1724'> +7.2714103e+01 </wgt>
<wgt id='1725'> +7.3476677e+01 </wgt>
<wgt id='1726'> +7.3299598e+01 </wgt>
<wgt id='1727'> +7.4575127e+01 </wgt>
<wgt id='1728'> +7.3013938e+01 </wgt>
<wgt id='1729'> +7.3392641e+01 </wgt>
<wgt id='1730'> +7.2872405e+01 </wgt>
<wgt id='1731'> +7.3128342e+01 </wgt>
<wgt id='1732'> +7.3071059e+01 </wgt>
<wgt id='1733'> +7.3335056e+01 </wgt>
<wgt id='1734'> +7.3030028e+01 </wgt>
<wgt id='1735'> +7.2999135e+01 </wgt>
<wgt id='1736'> +7.1446626e+01 </wgt>
<wgt id='1737'> +7.4244762e+01 </wgt>
<wgt id='1738'> +7.6086819e+01 </wgt>
<wgt id='1739'> +7.5971066e+01 </wgt>
<wgt id='1740'> +7.6202167e+01 </wgt>
<wgt id='1741'> +7.6244028e+01 </wgt>
<wgt id='1742'> +7.5929797e+01 </wgt>
<wgt id='1743'> +7.6221452e+01 </wgt>
<wgt id='1744'> +7.5952503e+01 </wgt>
<wgt id='1745'> +7.6391280e+01 </wgt>
<wgt id='1746'> +7.5790095e+01 </wgt>
<wgt id='1747'> +7.6145607e+01 </wgt>
<wgt id='1748'> +7.6030241e+01 </wgt>
<wgt id='1749'> +7.5837580e+01 </wgt>
<wgt id='1750'> +7.6364951e+01 </wgt>
<wgt id='1751'> +7.5772214e+01 </wgt>
<wgt id='1752'> +7.6405729e+01 </wgt>
<wgt id='1753'> +7.6097641e+01 </wgt>
<wgt id='1754'> +7.5947697e+01 </wgt>
<wgt id='1755'> +7.6388256e+01 </wgt>
<wgt id='1756'> +7.5818100e+01 </wgt>
<wgt id='1757'> +7.5836161e+01 </wgt>
<wgt id='1758'> +7.6305331e+01 </wgt>
<wgt id='1759'> +7.6368713e+01 </wgt>
<wgt id='1760'> +7.5740098e+01 </wgt>
<wgt id='1761'> +7.5702376e+01 </wgt>
<wgt id='1762'> +7.6138371e+01 </wgt>
<wgt id='1763'> +7.6236139e+01 </wgt>
<wgt id='1764'> +7.6030070e+01 </wgt>
<wgt id='1765'> +7.6247317e+01 </wgt>
<wgt id='1766'> +7.5996637e+01 </wgt>
<wgt id='1767'> +7.6086819e+01 </wgt>
<wgt id='1768'> +7.6133591e+01 </wgt>
<wgt id='1769'> +7.5940968e+01 </wgt>
<wgt id='1770'> +7.6128091e+01 </wgt>
<wgt id='1771'> +7.5984386e+01 </wgt>
<wgt id='1772'> +7.6300654e+01 </wgt>
<wgt id='1773'> +7.5605214e+01 </wgt>
<wgt id='1774'> +7.7202272e+01 </wgt>
<wgt id='1775'> +7.5006261e+01 </wgt>
<wgt id='1776'> +7.6054854e+01 </wgt>
<wgt id='1777'> +7.6111929e+01 </wgt>
<wgt id='1778'> +7.6038525e+01 </wgt>
<wgt id='1779'> +7.6063438e+01 </wgt>
<wgt id='1780'> +7.5300837e+01 </wgt>
<wgt id='1781'> +7.3107271e+01 </wgt>
<wgt id='1782'> +7.2963379e+01 </wgt>
<wgt id='1783'> +7.3099956e+01 </wgt>
<wgt id='1784'> +7.3099980e+01 </wgt>
<wgt id='1785'> +7.2963751e+01 </wgt>
<wgt id='1786'> +7.3194844e+01 </wgt>
<wgt id='1787'> +7.2869050e+01 </wgt>
<wgt id='1788'> +7.3430895e+01 </wgt>
<wgt id='1789'> +7.2643372e+01 </wgt>
<wgt id='1790'> +7.2941715e+01 </wgt>
<wgt id='1791'> +7.3128264e+01 </wgt>
<wgt id='1792'> +7.3243740e+01 </wgt>
<wgt id='1793'> +7.2821054e+01 </wgt>
<wgt id='1794'> +7.2833846e+01 </wgt>
<wgt id='1795'> +7.3226722e+01 </wgt>
<wgt id='1796'> +7.2900451e+01 </wgt>
<wgt id='1797'> +7.3046662e+01 </wgt>
<wgt id='1798'> +7.3016980e+01 </wgt>
<wgt id='1799'> +7.3036493e+01 </wgt>
<wgt id='1800'> +7.2875687e+01 </wgt>
<wgt id='1801'> +7.3186729e+01 </wgt>
<wgt id='1802'> +7.2553602e+01 </wgt>
<wgt id='1803'> +7.3430115e+01 </wgt>
<wgt id='1804'> +7.2999694e+01 </wgt>
<wgt id='1805'> +7.3059801e+01 </wgt>
<wgt id='1806'> +7.2650524e+01 </wgt>
<wgt id='1807'> +7.3257758e+01 </wgt>
<wgt id='1808'> +7.2952680e+01 </wgt>
<wgt id='1809'> +7.3184894e+01 </wgt>
<wgt id='1810'> +7.3079004e+01 </wgt>
<wgt id='1811'> +7.3137294e+01 </wgt>
<wgt id='1812'> +7.2666831e+01 </wgt>
<wgt id='1813'> +7.3114837e+01 </wgt>
<wgt id='1814'> +7.2886395e+01 </wgt>
<wgt id='1815'> +7.2738224e+01 </wgt>
<wgt id='1816'> +7.2821997e+01 </wgt>
<wgt id='1817'> +7.4080409e+01 </wgt>
<wgt id='1818'> +7.2157868e+01 </wgt>
<wgt id='1819'> +7.2901373e+01 </wgt>
<wgt id='1820'> +7.2782341e+01 </wgt>
<wgt id='1821'> +7.2785215e+01 </wgt>
<wgt id='1822'> +7.3579254e+01 </wgt>
<wgt id='1823'> +7.2649351e+01 </wgt>
<wgt id='1824'> +7.0452200e+01 </wgt>
<wgt id='1825'> +7.0442619e+01 </wgt>
<wgt id='1826'> +7.0433138e+01 </wgt>
<wgt id='1827'> +7.0423506e+01 </wgt>
<wgt id='1828'> +7.0413930e+01 </wgt>
<wgt id='1829'> +7.0404405e+01 </wgt>
<wgt id='1830'> +7.0394759e+01 </wgt>
<wgt id='1831'> +7.0385320e+01 </wgt>
<wgt id='1832'> +7.0375662e+01 </wgt>
<wgt id='1833'> +7.0366141e+01 </wgt>
<wgt id='1834'> +7.0356574e+01 </wgt>
<wgt id='1835'> +7.0346917e+01 </wgt>
<wgt id='1836'> +7.0337420e+01 </wgt>
<wgt id='1837'> +7.0327845e+01 </wgt>
<wgt id='1838'> +7.0318349e+01 </wgt>
<wgt id='1839'> +7.0308713e+01 </wgt>
<wgt id='1840'> +7.0299300e+01 </wgt>
<wgt id='1841'> +7.0289616e+01 </wgt>
<wgt id='1842'> +7.0280089e+01 </wgt>
<wgt id='1843'> +7.0270550e+01 </wgt>
<wgt id='1844'> +7.0261014e+01 </wgt>
<wgt id='1845'> +7.0251455e+01 </wgt>
<wgt id='1846'> +7.0241915e+01 </wgt>
<wgt id='1847'> +7.0232392e+01 </wgt>
<wgt id='1848'> +7.0222836e+01 </wgt>
<wgt id='1849'> +7.0213156e+01 </wgt>
<wgt id='1850'> +7.0203652e+01 </wgt>
<wgt id='1851'> +7.0194097e+01 </wgt>
<wgt id='1852'> +7.0184531e+01 </wgt>
<wgt id='1853'> +7.0175039e+01 </wgt>
<wgt id='1854'> +7.0165458e+01 </wgt>
<wgt id='1855'> +7.2132282e+01 </wgt>
<wgt id='1856'> +7.1792092e+01 </wgt>
<wgt id='1857'> +7.2785270e+01 </wgt>
<wgt id='1858'> +7.1069810e+01 </wgt>
<wgt id='1859'> +7.1795870e+01 </wgt>
<wgt id='1860'> +7.2389075e+01 </wgt>
<wgt id='1861'> +7.1934640e+01 </wgt>
<wgt id='1862'> +7.2355650e+01 </wgt>
<wgt id='1863'> +7.2227670e+01 </wgt>
<wgt id='1864'> +7.1950665e+01 </wgt>
<wgt id='1865'> +7.1497794e+01 </wgt>
<wgt id='1866'> +7.3450684e+01 </wgt>
<wgt id='1867'> +7.1726005e+01 </wgt>
<wgt id='1868'> +7.0835696e+01 </wgt>
<wgt id='1869'> +7.1732712e+01 </wgt>
<wgt id='1870'> +7.2115016e+01 </wgt>
<wgt id='1871'> +7.3135383e+01 </wgt>
<wgt id='1872'> +7.1818165e+01 </wgt>
<wgt id='1873'> +7.2008790e+01 </wgt>
<wgt id='1874'> +7.2272103e+01 </wgt>
<wgt id='1875'> +7.2538330e+01 </wgt>
<wgt id='1876'> +7.2074102e+01 </wgt>
<wgt id='1877'> +7.2095629e+01 </wgt>
<wgt id='1878'> +7.2044892e+01 </wgt>
<wgt id='1879'> +7.1961127e+01 </wgt>
<wgt id='1880'> +7.2148176e+01 </wgt>
<wgt id='1881'> +7.2021878e+01 </wgt>
<wgt id='1882'> +7.2185628e+01 </wgt>
<wgt id='1883'> +7.2214924e+01 </wgt>
<wgt id='1884'> +7.2087617e+01 </wgt>
<wgt id='1885'> +7.1992534e+01 </wgt>
<wgt id='1886'> +7.2195268e+01 </wgt>
<wgt id='1887'> +7.2065496e+01 </wgt>
<wgt id='1888'> +7.2058099e+01 </wgt>
<wgt id='1889'> +7.2166174e+01 </wgt>
<wgt id='1890'> +7.2141519e+01 </wgt>
<wgt id='1891'> +7.2178598e+01 </wgt>
<wgt id='1892'> +7.2107382e+01 </wgt>
<wgt id='1893'> +7.2116754e+01 </wgt>
<wgt id='1894'> +7.2052553e+01 </wgt>
<wgt id='1895'> +7.2074162e+01 </wgt>
<wgt id='1896'> +7.2211864e+01 </wgt>
<wgt id='1897'> +7.2227986e+01 </wgt>
<wgt id='1898'> +7.2067583e+01 </wgt>
<wgt id='1899'> +7.2110495e+01 </wgt>
<wgt id='1900'> +7.2222063e+01 </wgt>
<wgt id='1901'> +7.2082057e+01 </wgt>
<wgt id='1902'> +7.2203207e+01 </wgt>
<wgt id='1903'> +7.2205154e+01 </wgt>
<wgt id='1904'> +7.2154858e+01 </wgt>
<wgt id='1905'> +7.2135168e+01 </wgt>
<wgt id='1906'> +7.2116051e+01 </wgt>
<wgt id='1907'> +7.2179158e+01 </wgt>
<wgt id='1908'> +7.2047370e+01 </wgt>
<wgt id='1909'> +7.2095517e+01 </wgt>
<wgt id='1910'> +7.2132976e+01 </wgt>
<wgt id='1911'> +7.2138173e+01 </wgt>
<wgt id='1912'> +7.2190745e+01 </wgt>
<wgt id='1913'> +7.2038214e+01 </wgt>
<wgt id='1914'> +7.2103275e+01 </wgt>
<wgt id='1915'> +7.2115626e+01 </wgt>
<wgt id='1916'> +7.2141479e+01 </wgt>
<wgt id='1917'> +7.2143175e+01 </wgt>
<wgt id='1918'> +7.2081101e+01 </wgt>
<wgt id='1919'> +7.2206035e+01 </wgt>
<wgt id='1920'> +7.2084365e+01 </wgt>
<wgt id='1921'> +7.2093670e+01 </wgt>
<wgt id='1922'> +7.2132091e+01 </wgt>
<wgt id='1923'> +7.2146585e+01 </wgt>
<wgt id='1924'> +7.2147015e+01 </wgt>
<wgt id='1925'> +7.2117800e+01 </wgt>
<wgt id='1926'> +7.2147457e+01 </wgt>
<wgt id='1927'> +7.2125993e+01 </wgt>
<wgt id='1928'> +7.2139453e+01 </wgt>
<wgt id='1929'> +7.2140473e+01 </wgt>
<wgt id='1930'> +7.2155650e+01 </wgt>
<wgt id='1931'> +7.2123075e+01 </wgt>
<wgt id='1932'> +7.2134116e+01 </wgt>
<wgt id='1933'> +7.2086735e+01 </wgt>
<wgt id='1934'> +7.2120855e+01 </wgt>
<wgt id='1935'> +7.2205867e+01 </wgt>
<wgt id='1936'> +7.2152252e+01 </wgt>
<wgt id='1937'> +7.2153501e+01 </wgt>
<wgt id='1938'> +7.2136173e+01 </wgt>
<wgt id='1939'> +7.2103657e+01 </wgt>
<wgt id='1940'> +7.2083198e+01 </wgt>
<wgt id='1941'> +7.2172546e+01 </wgt>
<wgt id='1942'> +7.2050752e+01 </wgt>
<wgt id='1943'> +7.2092327e+01 </wgt>
<wgt id='1944'> +7.2092123e+01 </wgt>
<wgt id='1945'> +7.2115226e+01 </wgt>
<wgt id='1946'> +7.2084390e+01 </wgt>
<wgt id='1947'> +7.2096473e+01 </wgt>
<wgt id='1948'> +7.2124052e+01 </wgt>
<wgt id='1949'> +7.2084174e+01 </wgt>
<wgt id='1950'> +7.2119939e+01 </wgt>
<wgt id='1951'> +7.2152278e+01 </wgt>
<wgt id='1952'> +7.2142478e+01 </wgt>
<wgt id='1953'> +7.2099838e+01 </wgt>
<wgt id='1954'> +7.2140321e+01 </wgt>
<wgt id='1955'> +7.2145412e+01 </wgt>
<wgt id='1956'> +7.2131523e+01 </wgt>
<wgt id='1957'> +7.2136416e+01 </wgt>
<wgt id='1958'> +7.2133074e+01 </wgt>
<wgt id='1959'> +7.2133211e+01 </wgt>
<wgt id='1960'> +7.2134607e+01 </wgt>
<wgt id='1961'> +7.2132621e+01 </wgt>
<wgt id='1962'> +7.2137262e+01 </wgt>
</rwgt>
</event>
<event npLO=" -1 " npNLO=" 0 ">
 7      0 +1.5146096e+02 4.50535640e+01 7.54677110e-03 1.17763840e-01
       -4 -1    0    0    0  502 +0.0000000000e+00 +0.0000000000e+00 +4.5853306000e+01 4.5853306000e+01 0.0000000000e+00 0.0000e+00 9.0000e+00
        4 -1    0    0  501    0 +0.0000000000e+00 +0.0000000000e+00 -5.5959730000e+01 5.5959730000e+01 0.0000000000e+00 0.0000e+00 9.0000e+00
       23  2    1    2    0    0 +1.4473719000e+00 +6.5772699000e+00 -1.4809653000e+01 9.3598675000e+01 9.2173916000e+01 0.0000e+00 0.0000e+00
       13  1    3    3    0    0 -4.6232938000e+00 -2.4273898000e+01 +1.9977121000e+00 2.4790882000e+01 0.0000000000e+00 0.0000e+00 9.0000e+00
      -13  1    3    3    0    0 +9.9988979000e+00 +4.7494828000e+01 -1.7752787000e+01 5.1680732000e+01 0.0000000000e+00 0.0000e+00 9.0000e+00
       22  1    3    3    0    0 -3.9282321000e+00 -1.6643659000e+01 +9.4542148000e-01 1.7127061000e+01 0.0000000000e+00 0.0000e+00 9.0000e+00
       21  1    1    2  501  502 -1.4473719000e+00 -6.5772699000e+00 +4.7032295000e+00 8.2143614000e+00 0.0000000000e+00 0.0000e+00 9.0000e+00
#aMCatNLO 2  0  0  1  2 0.96343700E-01 0.00000000E+00 -9  6  0 0.00000000E+00 0.00000000E+00 0.00000000E+00 0.00000000E+00 0.00000000E+00
<rwgt>
<wgt id='1001'> +1.5146000e+02 </wgt>
<wgt id='1002'> +1.5146000e+02 </wgt>
<wgt id='1003'> +1.3474000e+02 </wgt>
<wgt id='1004'> +1.5299000e+02 </wgt>
<wgt id='1005'> +1.4936000e+02 </wgt>
<wgt id='1006'> +1.4927000e+02 </wgt>
<wgt id='1007'> +1.2792000e+02 </wgt>
<wgt id='1008'> +1.5152000e+02 </wgt>
<wgt id='1009'> +1.5506000e+02 </wgt>
<wgt id='1010'> +1.4991000e+02 </wgt>
<wgt id='1011'> +1.5058000e+02 </wgt>
<wgt id='1012'> +1.4525000e+02 </wgt>
<wgt id='1013'> +1.4998000e+02 </wgt>
<wgt id='1014'> +1.5518000e+02 </wgt>
<wgt id='1015'> +1.5445000e+02 </wgt>
<wgt id='1016'> +1.4561000e+02 </wgt>
<wgt id='1017'> +1.5027000e+02 </wgt>
<wgt id='1018'> +1.5546000e+02 </wgt>
<wgt id='1019'> +1.4734000e+02 </wgt>
<wgt id='1020'> +1.4916000e+02 </wgt>
<wgt id='1021'> +1.5356000e+02 </wgt>
<wgt id='1022'> +1.5352000e+02 </wgt>
<wgt id='1023'> +1.5223000e+02 </wgt>
<wgt id='1024'> +1.5102000e+02 </wgt>
<wgt id='1025'> +1.6619000e+02 </wgt>
<wgt id='1026'> +1.4961000e+02 </wgt>
<wgt id='1027'> +1.5522000e+02 </wgt>
<wgt id='1028'> +1.4652000e+02 </wgt>
<wgt id='1029'> +1.4954000e+02 </wgt>
<wgt id='1030'> +1.5040000e+02 </wgt>
<wgt id='1031'> +1.4838000e+02 </wgt>
<wgt id='1032'> +1.5507000e+02 </wgt>
<wgt id='1033'> +1.5056000e+02 </wgt>
<wgt id='1034'> +1.4542000e+02 </wgt>
<wgt id='1035'> +1.5767000e+02 </wgt>
<wgt id='1036'> +1.5326000e+02 </wgt>
<wgt id='1037'> +1.5690000e+02 </wgt>
<wgt id='1038'> +1.5859000e+02 </wgt>
<wgt id='1039'> +1.5336000e+02 </wgt>
<wgt id='1040'> +1.4878000e+02 </wgt>
<wgt id='1041'> +1.4450000e+02 </wgt>
<wgt id='1042'> +1.5526000e+02 </wgt>
<wgt id='1043'> +1.4991000e+02 </wgt>
<wgt id='1044'> +1.5571000e+02 </wgt>
<wgt id='1045'> +1.5459000e+02 </wgt>
<wgt id='1046'> +1.4976000e+02 </wgt>
<wgt id='1047'> +1.5597000e+02 </wgt>
<wgt id='1048'> +1.5256000e+02 </wgt>
<wgt id='1049'> +1.4799000e+02 </wgt>
<wgt id='1050'> +1.4712000e+02 </wgt>
<wgt id='1051'> +1.5446000e+02 </wgt>
<wgt id='1052'> +1.5268000e+02 </wgt>
<wgt id='1053'> +1.5214000e+02 </wgt>
<wgt id='1054'> +1.5158000e+02 </wgt>
<wgt id='1055'> +1.5458000e+02 </wgt>
<wgt id='1056'> +1.5075000e+02 </wgt>
<wgt id='1057'> +1.5240000e+02 </wgt>
<wgt id='1058'> +1.4571000e+02 </wgt>
<wgt id='1059'> +1.6084000e+02 </wgt>
<wgt id='1060'> +1.5050000e+02 </wgt>
<wgt id='1061'> +1.5362000e+02 </wgt>
<wgt id='1062'> +1.5077000e+02 </wgt>
<wgt id='1063'> +1.5433000e+02 </wgt>
<wgt id='1064'> +1.5190000e+02 </wgt>
<wgt id='1065'> +1.5563000e+02 </wgt>
<wgt id='1066'> +1.4943000e+02 </wgt>
<wgt id='1067'> +1.5401000e+02 </wgt>
<wgt id='1068'> +1.5224000e+02 </wgt>
<wgt id='1069'> +1.5856000e+02 </wgt>
<wgt id='1070'> +1.4861000e+02 </wgt>
<wgt id='1071'> +1.4706000e+02 </wgt>
<wgt id='1072'> +1.5324000e+02 </wgt>
<wgt id='1073'> +1.5746000e+02 </wgt>
<wgt id='1074'> +1.4911000e+02 </wgt>
<wgt id='1075'> +1.3610000e+02 </wgt>
<wgt id='1076'> +1.5260000e+02 </wgt>
<wgt id='1077'> +1.4947000e+02 </wgt>
<wgt id='1078'> +1.4640000e+02 </wgt>
<wgt id='1079'> +1.5353000e+02 </wgt>
<wgt id='1080'> +1.5947000e+02 </wgt>
<wgt id='1081'> +1.5073000e+02 </wgt>
<wgt id='1082'> +1.5355000e+02 </wgt>
<wgt id='1083'> +1.5254000e+02 </wgt>
<wgt id='1084'> +1.4954000e+02 </wgt>
<wgt id='1085'> +1.5123000e+02 </wgt>
<wgt id='1086'> +1.5269000e+02 </wgt>
<wgt id='1087'> +1.4555000e+02 </wgt>
<wgt id='1088'> +1.5115000e+02 </wgt>
<wgt id='1089'> +1.5058000e+02 </wgt>
<wgt id='1090'> +1.5210000e+02 </wgt>
<wgt id='1091'> +1.5483000e+02 </wgt>
<wgt id='1092'> +1.5102000e+02 </wgt>
<wgt id='1093'> +1.4486000e+02 </wgt>
<wgt id='1094'> +1.5765000e+02 </wgt>
<wgt id='1095'> +1.4950000e+02 </wgt>
<wgt id='1096'> +1.5651000e+02 </wgt>
<wgt id='1097'> +1.4896000e+02 </wgt>
<wgt id='1098'> +1.5431000e+02 </wgt>
<wgt id='1099'> +1.5274000e+02 </wgt>
<wgt id='1100'> +1.6054000e+02 </wgt>
<wgt id='1101'> +1.5706000e+02 </wgt>
<wgt id='1102'> +1.5035000e+02 </wgt>
<wgt id='1103'> +1.4733000e+02 </wgt>
<wgt id='1104'> +1.5384000e+02 </wgt>
<wgt id='1105'> +1.5146096e+02 </wgt>
<wgt id='1106'> +6.8589798e+01 </wgt>
<wgt id='1107'> +8.4571054e+01 </wgt>
<wgt id='1108'> +8.9165686e+01 </wgt>
<wgt id='1109'> +8.0758189e+01 </wgt>
<wgt id='1110'> +9.9574649e+01 </wgt>
<wgt id='1111'> +6.1521850e+01 </wgt>
<wgt id='1112'> +5.5720910e+01 </wgt>
<wgt id='1113'> +6.8703746e+01 </wgt>
<wgt id='1114'> +6.7459638e+01 </wgt>
<wgt id='1115'> +6.1412163e+01 </wgt>
<wgt id='1116'> +6.8696656e+01 </wgt>
<wgt id='1117'> +7.2390104e+01 </wgt>
<wgt id='1118'> +6.8069219e+01 </wgt>
<wgt id='1119'> +6.8839095e+01 </wgt>
<wgt id='1120'> +6.1697273e+01 </wgt>
<wgt id='1121'> +6.8728106e+01 </wgt>
<wgt id='1122'> +7.0790525e+01 </wgt>
<wgt id='1123'> +7.3971691e+01 </wgt>
<wgt id='1124'> +7.0723490e+01 </wgt>
<wgt id='1125'> +6.6276296e+01 </wgt>
<wgt id='1126'> +6.6876278e+01 </wgt>
<wgt id='1127'> +6.7974936e+01 </wgt>
<wgt id='1128'> +6.4919344e+01 </wgt>
<wgt id='1129'> +7.0703495e+01 </wgt>
<wgt id='1130'> +6.8165027e+01 </wgt>
<wgt id='1131'> +7.1146130e+01 </wgt>
<wgt id='1132'> +6.6626152e+01 </wgt>
<wgt id='1133'> +6.7151194e+01 </wgt>
<wgt id='1134'> +7.2870698e+01 </wgt>
<wgt id='1135'> +7.0490601e+01 </wgt>
<wgt id='1136'> +6.5712002e+01 </wgt>
<wgt id='1137'> +6.6405605e+01 </wgt>
<wgt id='1138'> +6.6622733e+01 </wgt>
<wgt id='1139'> +7.0203090e+01 </wgt>
<wgt id='1140'> +6.9508251e+01 </wgt>
<wgt id='1141'> +6.7779635e+01 </wgt>
<wgt id='1142'> +6.6023861e+01 </wgt>
<wgt id='1143'> +6.7959804e+01 </wgt>
<wgt id='1144'> +6.9718651e+01 </wgt>
<wgt id='1145'> +6.3635473e+01 </wgt>
<wgt id='1146'> +6.9345679e+01 </wgt>
<wgt id='1147'> +6.4869253e+01 </wgt>
<wgt id='1148'> +6.5708098e+01 </wgt>
<wgt id='1149'> +6.7299421e+01 </wgt>
<wgt id='1150'> +6.6630182e+01 </wgt>
<wgt id='1151'> +6.8477781e+01 </wgt>
<wgt id='1152'> +6.9383174e+01 </wgt>
<wgt id='1153'> +6.5872104e+01 </wgt>
<wgt id='1154'> +6.5828452e+01 </wgt>
<wgt id='1155'> +6.7977412e+01 </wgt>
<wgt id='1156'> +6.2148391e+01 </wgt>
<wgt id='1157'> +6.2899823e+01 </wgt>
<wgt id='1158'> +6.3329257e+01 </wgt>
<wgt id='1159'> +6.5377130e+01 </wgt>
<wgt id='1160'> +6.3834210e+01 </wgt>
<wgt id='1161'> +6.4308849e+01 </wgt>
<wgt id='1162'> +6.6677629e+01 </wgt>
<wgt id='1163'> +6.5982196e+01 </wgt>
<wgt id='1164'> +6.7082120e+01 </wgt>
<wgt id='1165'> +6.5727606e+01 </wgt>
<wgt id='1166'> +7.1978843e+01 </wgt>
<wgt id='1167'> +6.7874765e+01 </wgt>
<wgt id='1168'> +6.3712360e+01 </wgt>
<wgt id='1169'> +6.3980568e+01 </wgt>
<wgt id='1170'> +6.6080756e+01 </wgt>
<wgt id='1171'> +6.3791947e+01 </wgt>
<wgt id='1172'> +6.9282676e+01 </wgt>
<wgt id='1173'> +7.2259547e+01 </wgt>
<wgt id='1174'> +6.6087729e+01 </wgt>
<wgt id='1175'> +6.6369897e+01 </wgt>
<wgt id='1176'> +6.8874909e+01 </wgt>
<wgt id='1177'> +6.5481337e+01 </wgt>
<wgt id='1178'> +6.8103993e+01 </wgt>
<wgt id='1179'> +6.6110527e+01 </wgt>
<wgt id='1180'> +5.9125237e+01 </wgt>
<wgt id='1181'> +6.0910852e+01 </wgt>
<wgt id='1182'> +7.0233907e+01 </wgt>
<wgt id='1183'> +6.7036642e+01 </wgt>
<wgt id='1184'> +6.7593551e+01 </wgt>
<wgt id='1185'> +7.3346529e+01 </wgt>
<wgt id='1186'> +6.6070777e+01 </wgt>
<wgt id='1187'> +7.4716763e+01 </wgt>
<wgt id='1188'> +7.4650663e+01 </wgt>
<wgt id='1189'> +6.7298506e+01 </wgt>
<wgt id='1190'> +6.2741538e+01 </wgt>
<wgt id='1191'> +7.4341346e+01 </wgt>
<wgt id='1192'> +6.7947233e+01 </wgt>
<wgt id='1193'> +6.9251054e+01 </wgt>
<wgt id='1194'> +6.3423530e+01 </wgt>
<wgt id='1195'> +6.5017371e+01 </wgt>
<wgt id='1196'> +6.8165027e+01 </wgt>
<wgt id='1197'> +6.4242493e+01 </wgt>
<wgt id='1198'> +7.0415621e+01 </wgt>
<wgt id='1199'> +6.8588653e+01 </wgt>
<wgt id='1200'> +6.0084745e+01 </wgt>
<wgt id='1201'> +6.7674516e+01 </wgt>
<wgt id='1202'> +6.6173371e+01 </wgt>
<wgt id='1203'> +7.8236360e+01 </wgt>
<wgt id='1204'> +6.5093446e+01 </wgt>
<wgt id='1205'> +6.5635728e+01 </wgt>
<wgt id='1206'> +7.1856572e+01 </wgt>
<wgt id='1207'> +6.9742409e+01 </wgt>
<wgt id='1208'> +7.0497724e+01 </wgt>
<wgt id='1209'> +6.6807046e+01 </wgt>
<wgt id='1210'> +6.6646947e+01 </wgt>
<wgt id='1211'> +6.2459136e+01 </wgt>
<wgt id='1212'> +7.1360196e+01 </wgt>
<wgt id='1213'> +7.2582337e+01 </wgt>
<wgt id='1214'> +6.9417820e+01 </wgt>
<wgt id='1215'> +7.5290281e+01 </wgt>
<wgt id='1216'> +6.3292844e+01 </wgt>
<wgt id='1217'> +6.3625830e+01 </wgt>
<wgt id='1218'> +6.2825598e+01 </wgt>
<wgt id='1219'> +6.3797394e+01 </wgt>
<wgt id='1220'> +6.3187707e+01 </wgt>
<wgt id='1221'> +6.3805649e+01 </wgt>
<wgt id='1222'> +6.3509893e+01 </wgt>
<wgt id='1223'> +6.3230709e+01 </wgt>
<wgt id='1224'> +6.2843808e+01 </wgt>
<wgt id='1225'> +6.2634640e+01 </wgt>
<wgt id='1226'> +6.3285836e+01 </wgt>
<wgt id='1227'> +6.3666816e+01 </wgt>
<wgt id='1228'> +6.4101756e+01 </wgt>
<wgt id='1229'> +6.2187565e+01 </wgt>
<wgt id='1230'> +6.3560115e+01 </wgt>
<wgt id='1231'> +6.3976844e+01 </wgt>
<wgt id='1232'> +6.3171172e+01 </wgt>
<wgt id='1233'> +6.4004576e+01 </wgt>
<wgt id='1234'> +6.3208995e+01 </wgt>
<wgt id='1235'> +6.2875652e+01 </wgt>
<wgt id='1236'> +6.3733020e+01 </wgt>
<wgt id='1237'> +6.2535543e+01 </wgt>
<wgt id='1238'> +6.3284094e+01 </wgt>
<wgt id='1239'> +6.3493314e+01 </wgt>
<wgt id='1240'> +6.2749861e+01 </wgt>
<wgt id='1241'> +6.3920882e+01 </wgt>
<wgt id='1242'> +6.3263762e+01 </wgt>
<wgt id='1243'> +6.2956648e+01 </wgt>
<wgt id='1244'> +6.3590919e+01 </wgt>
<wgt id='1245'> +6.2250506e+01 </wgt>
<wgt id='1246'> +6.3335718e+01 </wgt>
<wgt id='1247'> +6.3303749e+01 </wgt>
<wgt id='1248'> +6.3625721e+01 </wgt>
<wgt id='1249'> +6.3104721e+01 </wgt>
<wgt id='1250'> +6.2786618e+01 </wgt>
<wgt id='1251'> +6.3141759e+01 </wgt>
<wgt id='1252'> +6.3290183e+01 </wgt>
<wgt id='1253'> +6.3468294e+01 </wgt>
<wgt id='1254'> +6.3238169e+01 </wgt>
<wgt id='1255'> +6.3592102e+01 </wgt>
<wgt id='1256'> +6.3267572e+01 </wgt>
<wgt id='1257'> +6.3973402e+01 </wgt>
<wgt id='1258'> +6.3555421e+01 </wgt>
<wgt id='1259'> +6.3419074e+01 </wgt>
<wgt id='1260'> +6.3454350e+01 </wgt>
<wgt id='1261'> +6.2966561e+01 </wgt>
<wgt id='1262'> +6.3118754e+01 </wgt>
<wgt id='1263'> +6.3572483e+01 </wgt>
<wgt id='1264'> +6.3519653e+01 </wgt>
<wgt id='1265'> +6.2968311e+01 </wgt>
<wgt id='1266'> +6.3191825e+01 </wgt>
<wgt id='1267'> +6.3077311e+01 </wgt>
<wgt id='1268'> +6.3773851e+01 </wgt>
<wgt id='1269'> +6.3394927e+01 </wgt>
<wgt id='1270'> +6.3599313e+01 </wgt>
<wgt id='1271'> +6.3394001e+01 </wgt>
<wgt id='1272'> +6.3114911e+01 </wgt>
<wgt id='1273'> +6.3355272e+01 </wgt>
<wgt id='1274'> +6.3312879e+01 </wgt>
<wgt id='1275'> +6.3343778e+01 </wgt>
<wgt id='1276'> +6.3184687e+01 </wgt>
<wgt id='1277'> +6.3080751e+01 </wgt>
<wgt id='1278'> +6.3076645e+01 </wgt>
<wgt id='1279'> +6.3204608e+01 </wgt>
<wgt id='1280'> +6.3247250e+01 </wgt>
<wgt id='1281'> +6.3350834e+01 </wgt>
<wgt id='1282'> +6.2961262e+01 </wgt>
<wgt id='1283'> +6.3497350e+01 </wgt>
<wgt id='1284'> +6.3466613e+01 </wgt>
<wgt id='1285'> +6.3302975e+01 </wgt>
<wgt id='1286'> +6.3359620e+01 </wgt>
<wgt id='1287'> +6.3173961e+01 </wgt>
<wgt id='1288'> +6.3468026e+01 </wgt>
<wgt id='1289'> +6.3144316e+01 </wgt>
<wgt id='1290'> +6.3068396e+01 </wgt>
<wgt id='1291'> +6.3253608e+01 </wgt>
<wgt id='1292'> +6.3140128e+01 </wgt>
<wgt id='1293'> +6.3160153e+01 </wgt>
<wgt id='1294'> +6.3233641e+01 </wgt>
<wgt id='1295'> +6.3402666e+01 </wgt>
<wgt id='1296'> +6.3292271e+01 </wgt>
<wgt id='1297'> +6.3381496e+01 </wgt>
<wgt id='1298'> +6.3451680e+01 </wgt>
<wgt id='1299'> +6.3413235e+01 </wgt>
<wgt id='1300'> +6.3181293e+01 </wgt>
<wgt id='1301'> +6.3118652e+01 </wgt>
<wgt id='1302'> +6.3317261e+01 </wgt>
<wgt id='1303'> +6.3371461e+01 </wgt>
<wgt id='1304'> +6.3306932e+01 </wgt>
<wgt id='1305'> +6.3251458e+01 </wgt>
<wgt id='1306'> +6.3319829e+01 </wgt>
<wgt id='1307'> +6.3365455e+01 </wgt>
<wgt id='1308'> +6.3311371e+01 </wgt>
<wgt id='1309'> +6.3183373e+01 </wgt>
<wgt id='1310'> +6.3347906e+01 </wgt>
<wgt id='1311'> +6.3348767e+01 </wgt>
<wgt id='1312'> +6.3216354e+01 </wgt>
<wgt id='1313'> +6.3259037e+01 </wgt>
<wgt id='1314'> +6.3346386e+01 </wgt>
<wgt id='1315'> +6.3269745e+01 </wgt>
<wgt id='1316'> +6.3156092e+01 </wgt>
<wgt id='1317'> +5.9928470e+01 </wgt>
<wgt id='1318'> +6.6955142e+01 </wgt>
<wgt id='1319'> +4.8358121e+01 </wgt>
<wgt id='1320'> +7.4072890e+01 </wgt>
<wgt id='1321'> +7.4089155e+01 </wgt>
<wgt id='1322'> +7.4339985e+01 </wgt>
<wgt id='1323'> +7.6971638e+01 </wgt>
<wgt id='1324'> +7.3105866e+01 </wgt>
<wgt id='1325'> +7.4393869e+01 </wgt>
<wgt id='1326'> +7.3681051e+01 </wgt>
<wgt id='1327'> +7.5350160e+01 </wgt>
<wgt id='1328'> +7.3598076e+01 </wgt>
<wgt id='1329'> +7.1725969e+01 </wgt>
<wgt id='1330'> +7.5989138e+01 </wgt>
<wgt id='1331'> +7.5684950e+01 </wgt>
<wgt id='1332'> +7.3143730e+01 </wgt>
<wgt id='1333'> +6.9870794e+01 </wgt>
<wgt id='1334'> +7.6624838e+01 </wgt>
<wgt id='1335'> +7.5022697e+01 </wgt>
<wgt id='1336'> +7.3427245e+01 </wgt>
<wgt id='1337'> +7.3074508e+01 </wgt>
<wgt id='1338'> +7.5259052e+01 </wgt>
<wgt id='1339'> +7.5351082e+01 </wgt>
<wgt id='1340'> +7.2630120e+01 </wgt>
<wgt id='1341'> +7.4351868e+01 </wgt>
<wgt id='1342'> +7.3483909e+01 </wgt>
<wgt id='1343'> +7.3432612e+01 </wgt>
<wgt id='1344'> +7.4653670e+01 </wgt>
<wgt id='1345'> +7.2161075e+01 </wgt>
<wgt id='1346'> +7.5857035e+01 </wgt>
<wgt id='1347'> +7.3670544e+01 </wgt>
<wgt id='1348'> +7.4615903e+01 </wgt>
<wgt id='1349'> +7.3223983e+01 </wgt>
<wgt id='1350'> +7.4364061e+01 </wgt>
<wgt id='1351'> +7.4168382e+01 </wgt>
<wgt id='1352'> +7.3948183e+01 </wgt>
<wgt id='1353'> +7.4118714e+01 </wgt>
<wgt id='1354'> +7.3947338e+01 </wgt>
<wgt id='1355'> +7.5980477e+01 </wgt>
<wgt id='1356'> +7.2215296e+01 </wgt>
<wgt id='1357'> +7.5012022e+01 </wgt>
<wgt id='1358'> +7.2575840e+01 </wgt>
<wgt id='1359'> +7.4077147e+01 </wgt>
<wgt id='1360'> +7.3963422e+01 </wgt>
<wgt id='1361'> +7.5075721e+01 </wgt>
<wgt id='1362'> +7.3063029e+01 </wgt>
<wgt id='1363'> +7.5176354e+01 </wgt>
<wgt id='1364'> +7.2742910e+01 </wgt>
<wgt id='1365'> +7.3018902e+01 </wgt>
<wgt id='1366'> +7.3505648e+01 </wgt>
<wgt id='1367'> +7.2726221e+01 </wgt>
<wgt id='1368'> +7.5761721e+01 </wgt>
<wgt id='1369'> +7.5039248e+01 </wgt>
<wgt id='1370'> +7.2032727e+01 </wgt>
<wgt id='1371'> +7.3973387e+01 </wgt>
<wgt id='1372'> +7.3908840e+01 </wgt>
<wgt id='1373'> +7.1921512e+01 </wgt>
<wgt id='1374'> +7.4683608e+01 </wgt>
<wgt id='1375'> +7.3298201e+01 </wgt>
<wgt id='1376'> +7.4834530e+01 </wgt>
<wgt id='1377'> +7.0832197e+01 </wgt>
<wgt id='1378'> +7.7069321e+01 </wgt>
<wgt id='1379'> +7.3267303e+01 </wgt>
<wgt id='1380'> +7.0742990e+01 </wgt>
<wgt id='1381'> +7.5287291e+01 </wgt>
<wgt id='1382'> +4.5241261e+01 </wgt>
<wgt id='1383'> +7.3023234e+01 </wgt>
<wgt id='1384'> +7.1567206e+01 </wgt>
<wgt id='1385'> +6.7818051e+01 </wgt>
<wgt id='1386'> +6.7968649e+01 </wgt>
<wgt id='1387'> +6.7651558e+01 </wgt>
<wgt id='1388'> +6.7176914e+01 </wgt>
<wgt id='1389'> +6.8925124e+01 </wgt>
<wgt id='1390'> +6.7725079e+01 </wgt>
<wgt id='1391'> +6.7930434e+01 </wgt>
<wgt id='1392'> +6.8397523e+01 </wgt>
<wgt id='1393'> +6.7417540e+01 </wgt>
<wgt id='1394'> +6.7244633e+01 </wgt>
<wgt id='1395'> +6.8532406e+01 </wgt>
<wgt id='1396'> +6.6919708e+01 </wgt>
<wgt id='1397'> +6.8287590e+01 </wgt>
<wgt id='1398'> +6.7788494e+01 </wgt>
<wgt id='1399'> +6.7829301e+01 </wgt>
<wgt id='1400'> +6.7790002e+01 </wgt>
<wgt id='1401'> +6.7828916e+01 </wgt>
<wgt id='1402'> +6.7596429e+01 </wgt>
<wgt id='1403'> +6.7921576e+01 </wgt>
<wgt id='1404'> +6.8609274e+01 </wgt>
<wgt id='1405'> +6.7436665e+01 </wgt>
<wgt id='1406'> +6.7787190e+01 </wgt>
<wgt id='1407'> +6.7871929e+01 </wgt>
<wgt id='1408'> +6.7791738e+01 </wgt>
<wgt id='1409'> +6.7880062e+01 </wgt>
<wgt id='1410'> +6.7819830e+01 </wgt>
<wgt id='1411'> +6.7763852e+01 </wgt>
<wgt id='1412'> +6.8782137e+01 </wgt>
<wgt id='1413'> +6.6541677e+01 </wgt>
<wgt id='1414'> +6.8258175e+01 </wgt>
<wgt id='1415'> +6.7535191e+01 </wgt>
<wgt id='1416'> +6.7878747e+01 </wgt>
<wgt id='1417'> +6.7782878e+01 </wgt>
<wgt id='1418'> +6.7994322e+01 </wgt>
<wgt id='1419'> +6.7433859e+01 </wgt>
<wgt id='1420'> +6.7187847e+01 </wgt>
<wgt id='1421'> +6.7944062e+01 </wgt>
<wgt id='1422'> +6.7993792e+01 </wgt>
<wgt id='1423'> +6.7613271e+01 </wgt>
<wgt id='1424'> +6.7702258e+01 </wgt>
<wgt id='1425'> +6.7734629e+01 </wgt>
<wgt id='1426'> +6.7932800e+01 </wgt>
<wgt id='1427'> +6.7713524e+01 </wgt>
<wgt id='1428'> +6.8173994e+01 </wgt>
<wgt id='1429'> +6.7673084e+01 </wgt>
<wgt id='1430'> +6.7847269e+01 </wgt>
<wgt id='1431'> +6.7792644e+01 </wgt>
<wgt id='1432'> +6.7803829e+01 </wgt>
<wgt id='1433'> +6.7832879e+01 </wgt>
<wgt id='1434'> +6.7735814e+01 </wgt>
<wgt id='1435'> +6.7924771e+01 </wgt>
<wgt id='1436'> +0.0000000e+00 </wgt>
<wgt id='1437'> +0.0000000e+00 </wgt>
<wgt id='1438'> +0.0000000e+00 </wgt>
<wgt id='1439'> +0.0000000e+00 </wgt>
<wgt id='1440'> +0.0000000e+00 </wgt>
<wgt id='1441'> +0.0000000e+00 </wgt>
<wgt id='1442'> +0.0000000e+00 </wgt>
<wgt id='1443'> +0.0000000e+00 </wgt>
<wgt id='1444'> +0.0000000e+00 </wgt>
<wgt id='1445'> +0.0000000e+00 </wgt>
<wgt id='1446'> +0.0000000e+00 </wgt>
<wgt id='1447'> +0.0000000e+00 </wgt>
<wgt id='1448'> +0.0000000e+00 </wgt>
<wgt id='1449'> +0.0000000e+00 </wgt>
<wgt id='1450'> +0.0000000e+00 </wgt>
<wgt id='1451'> +0.0000000e+00 </wgt>
<wgt id='1452'> +0.0000000e+00 </wgt>
<wgt id='1453'> +0.0000000e+00 </wgt>
<wgt id='1454'> +0.0000000e+00 </wgt>
<wgt id='1455'> +0.0000000e+00 </wgt>
<wgt id='1456'> +0.0000000e+00 </wgt>
<wgt id='1457'> +0.0000000e+00 </wgt>
<wgt id='1458'> +0.0000000e+00 </wgt>
<wgt id='1459'> +0.0000000e+00 </wgt>
<wgt id='1460'> +0.0000000e+00 </wgt>
<wgt id='1461'> +0.0000000e+00 </wgt>
<wgt id='1462'> +0.0000000e+00 </wgt>
<wgt id='1463'> +0.0000000e+00 </wgt>
<wgt id='1464'> +0.0000000e+00 </wgt>
<wgt id='1465'> +7.3730204e+01 </wgt>
<wgt id='1466'> +7.4302696e+01 </wgt>
<wgt id='1467'> +7.3817344e+01 </wgt>
<wgt id='1468'> +7.5128211e+01 </wgt>
<wgt id='1469'> +7.4731535e+01 </wgt>
<wgt id='1470'> +7.3971465e+01 </wgt>
<wgt id='1471'> +7.4291438e+01 </wgt>
<wgt id='1472'> +7.3979796e+01 </wgt>
<wgt id='1473'> +7.4960304e+01 </wgt>
<wgt id='1474'> +7.5188357e+01 </wgt>
<wgt id='1475'> +7.3833934e+01 </wgt>
<wgt id='1476'> +7.6128308e+01 </wgt>
<wgt id='1477'> +7.4191636e+01 </wgt>
<wgt id='1478'> +7.2930295e+01 </wgt>
<wgt id='1479'> +7.4933491e+01 </wgt>
<wgt id='1480'> +7.3376328e+01 </wgt>
<wgt id='1481'> +7.4384809e+01 </wgt>
<wgt id='1482'> +7.4078026e+01 </wgt>
<wgt id='1483'> +7.3948255e+01 </wgt>
<wgt id='1484'> +7.4472619e+01 </wgt>
<wgt id='1485'> +7.3886774e+01 </wgt>
<wgt id='1486'> +7.3894752e+01 </wgt>
<wgt id='1487'> +7.4510704e+01 </wgt>
<wgt id='1488'> +7.4556394e+01 </wgt>
<wgt id='1489'> +7.4061187e+01 </wgt>
<wgt id='1490'> +7.4459570e+01 </wgt>
<wgt id='1491'> +7.4978829e+01 </wgt>
<wgt id='1492'> +7.4436656e+01 </wgt>
<wgt id='1493'> +7.4121301e+01 </wgt>
<wgt id='1494'> +7.4466605e+01 </wgt>
<wgt id='1495'> +7.4344678e+01 </wgt>
<wgt id='1496'> +7.4378729e+01 </wgt>
<wgt id='1497'> +7.4291888e+01 </wgt>
<wgt id='1498'> +7.4321988e+01 </wgt>
<wgt id='1499'> +7.4398168e+01 </wgt>
<wgt id='1500'> +7.4494715e+01 </wgt>
<wgt id='1501'> +7.4256236e+01 </wgt>
<wgt id='1502'> +7.4286041e+01 </wgt>
<wgt id='1503'> +7.4314048e+01 </wgt>
<wgt id='1504'> +7.4222588e+01 </wgt>
<wgt id='1505'> +7.4352079e+01 </wgt>
<wgt id='1506'> +7.4405621e+01 </wgt>
<wgt id='1507'> +7.4275100e+01 </wgt>
<wgt id='1508'> +7.4297725e+01 </wgt>
<wgt id='1509'> +7.4267075e+01 </wgt>
<wgt id='1510'> +7.4382460e+01 </wgt>
<wgt id='1511'> +7.4298197e+01 </wgt>
<wgt id='1512'> +7.4218605e+01 </wgt>
<wgt id='1513'> +7.4423399e+01 </wgt>
<wgt id='1514'> +7.4306205e+01 </wgt>
<wgt id='1515'> +7.4316436e+01 </wgt>
<wgt id='1516'> +7.4245119e+01 </wgt>
<wgt id='1517'> +7.4261864e+01 </wgt>
<wgt id='1518'> +7.4257592e+01 </wgt>
<wgt id='1519'> +7.4262438e+01 </wgt>
<wgt id='1520'> +7.4275554e+01 </wgt>
<wgt id='1521'> +7.4281379e+01 </wgt>
<wgt id='1522'> +7.4329883e+01 </wgt>
<wgt id='1523'> +7.4305788e+01 </wgt>
<wgt id='1524'> +7.4273014e+01 </wgt>
<wgt id='1525'> +7.4326344e+01 </wgt>
<wgt id='1526'> +7.4326539e+01 </wgt>
<wgt id='1527'> +7.4325475e+01 </wgt>
<wgt id='1528'> +7.4315105e+01 </wgt>
<wgt id='1529'> +7.4290114e+01 </wgt>
<wgt id='1530'> +7.4290034e+01 </wgt>
<wgt id='1531'> +7.4291470e+01 </wgt>
<wgt id='1532'> +7.4433044e+01 </wgt>
<wgt id='1533'> +7.4368647e+01 </wgt>
<wgt id='1534'> +7.4311778e+01 </wgt>
<wgt id='1535'> +7.4301988e+01 </wgt>
<wgt id='1536'> +7.4226930e+01 </wgt>
<wgt id='1537'> +7.4343506e+01 </wgt>
<wgt id='1538'> +7.4306215e+01 </wgt>
<wgt id='1539'> +7.4251331e+01 </wgt>
<wgt id='1540'> +7.4225197e+01 </wgt>
<wgt id='1541'> +7.4322198e+01 </wgt>
<wgt id='1542'> +7.4354478e+01 </wgt>
<wgt id='1543'> +7.4198040e+01 </wgt>
<wgt id='1544'> +7.4313818e+01 </wgt>
<wgt id='1545'> +7.4322687e+01 </wgt>
<wgt id='1546'> +7.4282039e+01 </wgt>
<wgt id='1547'> +7.4257494e+01 </wgt>
<wgt id='1548'> +7.4381019e+01 </wgt>
<wgt id='1549'> +7.4289770e+01 </wgt>
<wgt id='1550'> +7.4353243e+01 </wgt>
<wgt id='1551'> +7.4279342e+01 </wgt>
<wgt id='1552'> +7.4403056e+01 </wgt>
<wgt id='1553'> +7.4362035e+01 </wgt>
<wgt id='1554'> +7.4340268e+01 </wgt>
<wgt id='1555'> +7.4320188e+01 </wgt>
<wgt id='1556'> +7.4303495e+01 </wgt>
<wgt id='1557'> +7.4223285e+01 </wgt>
<wgt id='1558'> +7.4293711e+01 </wgt>
<wgt id='1559'> +7.4310296e+01 </wgt>
<wgt id='1560'> +7.4241716e+01 </wgt>
<wgt id='1561'> +7.4254578e+01 </wgt>
<wgt id='1562'> +7.4273443e+01 </wgt>
<wgt id='1563'> +7.4343013e+01 </wgt>
<wgt id='1564'> +7.4297222e+01 </wgt>
<wgt id='1565'> +7.4325745e+01 </wgt>
<wgt id='1566'> +7.4312818e+01 </wgt>
<wgt id='1567'> +7.1854891e+01 </wgt>
<wgt id='1568'> +7.6467448e+01 </wgt>
<wgt id='1569'> +7.3397284e+01 </wgt>
<wgt id='1570'> +7.3102849e+01 </wgt>
<wgt id='1571'> +7.3909940e+01 </wgt>
<wgt id='1572'> +7.2406924e+01 </wgt>
<wgt id='1573'> +7.3050752e+01 </wgt>
<wgt id='1574'> +7.3797517e+01 </wgt>
<wgt id='1575'> +7.3449729e+01 </wgt>
<wgt id='1576'> +7.4046227e+01 </wgt>
<wgt id='1577'> +7.3758819e+01 </wgt>
<wgt id='1578'> +7.3303776e+01 </wgt>
<wgt id='1579'> +7.3146111e+01 </wgt>
<wgt id='1580'> +7.4966363e+01 </wgt>
<wgt id='1581'> +7.1975982e+01 </wgt>
<wgt id='1582'> +7.2118176e+01 </wgt>
<wgt id='1583'> +7.2174947e+01 </wgt>
<wgt id='1584'> +7.2792424e+01 </wgt>
<wgt id='1585'> +7.4062608e+01 </wgt>
<wgt id='1586'> +7.3251786e+01 </wgt>
<wgt id='1587'> +7.3349968e+01 </wgt>
<wgt id='1588'> +7.3598694e+01 </wgt>
<wgt id='1589'> +7.3981150e+01 </wgt>
<wgt id='1590'> +7.3269118e+01 </wgt>
<wgt id='1591'> +7.3410049e+01 </wgt>
<wgt id='1592'> +7.3357465e+01 </wgt>
<wgt id='1593'> +7.3135266e+01 </wgt>
<wgt id='1594'> +7.3219926e+01 </wgt>
<wgt id='1595'> +7.3173740e+01 </wgt>
<wgt id='1596'> +7.3646378e+01 </wgt>
<wgt id='1597'> +7.3549880e+01 </wgt>
<wgt id='1598'> +7.3332514e+01 </wgt>
<wgt id='1599'> +7.3303370e+01 </wgt>
<wgt id='1600'> +7.3673931e+01 </wgt>
<wgt id='1601'> +7.3333923e+01 </wgt>
<wgt id='1602'> +7.3375362e+01 </wgt>
<wgt id='1603'> +7.3360675e+01 </wgt>
<wgt id='1604'> +7.3405342e+01 </wgt>
<wgt id='1605'> +7.3417290e+01 </wgt>
<wgt id='1606'> +7.3454777e+01 </wgt>
<wgt id='1607'> +7.3366754e+01 </wgt>
<wgt id='1608'> +7.3285493e+01 </wgt>
<wgt id='1609'> +7.3341136e+01 </wgt>
<wgt id='1610'> +7.3315069e+01 </wgt>
<wgt id='1611'> +7.3344797e+01 </wgt>
<wgt id='1612'> +7.3500955e+01 </wgt>
<wgt id='1613'> +7.3382224e+01 </wgt>
<wgt id='1614'> +7.3360363e+01 </wgt>
<wgt id='1615'> +7.3401944e+01 </wgt>
<wgt id='1616'> +7.3324300e+01 </wgt>
<wgt id='1617'> +7.3468596e+01 </wgt>
<wgt id='1618'> +7.3342938e+01 </wgt>
<wgt id='1619'> +7.3437184e+01 </wgt>
<wgt id='1620'> +7.3393350e+01 </wgt>
<wgt id='1621'> +7.3397320e+01 </wgt>
<wgt id='1622'> +7.3412015e+01 </wgt>
<wgt id='1623'> +7.3408194e+01 </wgt>
<wgt id='1624'> +7.3422329e+01 </wgt>
<wgt id='1625'> +7.3357350e+01 </wgt>
<wgt id='1626'> +7.3401161e+01 </wgt>
<wgt id='1627'> +7.3441776e+01 </wgt>
<wgt id='1628'> +7.3420301e+01 </wgt>
<wgt id='1629'> +7.3425069e+01 </wgt>
<wgt id='1630'> +7.3419842e+01 </wgt>
<wgt id='1631'> +7.3383314e+01 </wgt>
<wgt id='1632'> +7.3375407e+01 </wgt>
<wgt id='1633'> +7.3420302e+01 </wgt>
<wgt id='1634'> +7.3380645e+01 </wgt>
<wgt id='1635'> +7.3388623e+01 </wgt>
<wgt id='1636'> +7.3372076e+01 </wgt>
<wgt id='1637'> +7.3421988e+01 </wgt>
<wgt id='1638'> +7.3378220e+01 </wgt>
<wgt id='1639'> +7.3375223e+01 </wgt>
<wgt id='1640'> +7.3452285e+01 </wgt>
<wgt id='1641'> +7.3401595e+01 </wgt>
<wgt id='1642'> +7.3359820e+01 </wgt>
<wgt id='1643'> +7.3403521e+01 </wgt>
<wgt id='1644'> +7.3404769e+01 </wgt>
<wgt id='1645'> +7.3452447e+01 </wgt>
<wgt id='1646'> +7.3411153e+01 </wgt>
<wgt id='1647'> +7.3437301e+01 </wgt>
<wgt id='1648'> +7.3390018e+01 </wgt>
<wgt id='1649'> +7.3382071e+01 </wgt>
<wgt id='1650'> +7.3445268e+01 </wgt>
<wgt id='1651'> +7.3426460e+01 </wgt>
<wgt id='1652'> +7.3381125e+01 </wgt>
<wgt id='1653'> +7.3360186e+01 </wgt>
<wgt id='1654'> +7.3398910e+01 </wgt>
<wgt id='1655'> +7.3465056e+01 </wgt>
<wgt id='1656'> +7.3342950e+01 </wgt>
<wgt id='1657'> +7.3355928e+01 </wgt>
<wgt id='1658'> +7.3356008e+01 </wgt>
<wgt id='1659'> +7.3387743e+01 </wgt>
<wgt id='1660'> +7.3354158e+01 </wgt>
<wgt id='1661'> +7.3365490e+01 </wgt>
<wgt id='1662'> +7.3396936e+01 </wgt>
<wgt id='1663'> +7.3346466e+01 </wgt>
<wgt id='1664'> +7.3402375e+01 </wgt>
<wgt id='1665'> +7.3407384e+01 </wgt>
<wgt id='1666'> +7.3401694e+01 </wgt>
<wgt id='1667'> +7.3386663e+01 </wgt>
<wgt id='1668'> +7.3407936e+01 </wgt>
<wgt id='1669'> +7.3410541e+01 </wgt>
<wgt id='1670'> +7.1536697e+01 </wgt>
<wgt id='1671'> +7.4555637e+01 </wgt>
<wgt id='1672'> +7.4304152e+01 </wgt>
<wgt id='1673'> +7.4111832e+01 </wgt>
<wgt id='1674'> +7.3369291e+01 </wgt>
<wgt id='1675'> +7.4294854e+01 </wgt>
<wgt id='1676'> +7.3852295e+01 </wgt>
<wgt id='1677'> +7.6953872e+01 </wgt>
<wgt id='1678'> +7.3760041e+01 </wgt>
<wgt id='1679'> +7.4333462e+01 </wgt>
<wgt id='1680'> +7.4597864e+01 </wgt>
<wgt id='1681'> +7.4153985e+01 </wgt>
<wgt id='1682'> +7.4411331e+01 </wgt>
<wgt id='1683'> +7.4299596e+01 </wgt>
<wgt id='1684'> +7.4537264e+01 </wgt>
<wgt id='1685'> +7.4323586e+01 </wgt>
<wgt id='1686'> +7.4160030e+01 </wgt>
<wgt id='1687'> +7.4534036e+01 </wgt>
<wgt id='1688'> +7.4278799e+01 </wgt>
<wgt id='1689'> +7.3494235e+01 </wgt>
<wgt id='1690'> +7.4527374e+01 </wgt>
<wgt id='1691'> +7.4521519e+01 </wgt>
<wgt id='1692'> +7.4721578e+01 </wgt>
<wgt id='1693'> +7.4253308e+01 </wgt>
<wgt id='1694'> +7.4190010e+01 </wgt>
<wgt id='1695'> +7.4327684e+01 </wgt>
<wgt id='1696'> +7.3923900e+01 </wgt>
<wgt id='1697'> +7.4402001e+01 </wgt>
<wgt id='1698'> +7.4152029e+01 </wgt>
<wgt id='1699'> +7.4416473e+01 </wgt>
<wgt id='1700'> +7.4171456e+01 </wgt>
<wgt id='1701'> +7.4540889e+01 </wgt>
<wgt id='1702'> +7.4361207e+01 </wgt>
<wgt id='1703'> +7.1854891e+01 </wgt>
<wgt id='1704'> +7.6467448e+01 </wgt>
<wgt id='1705'> +7.3397924e+01 </wgt>
<wgt id='1706'> +7.3124733e+01 </wgt>
<wgt id='1707'> +7.3427338e+01 </wgt>
<wgt id='1708'> +7.3198046e+01 </wgt>
<wgt id='1709'> +7.3711795e+01 </wgt>
<wgt id='1710'> +7.1499784e+01 </wgt>
<wgt id='1711'> +7.3230621e+01 </wgt>
<wgt id='1712'> +7.3382353e+01 </wgt>
<wgt id='1713'> +7.2722450e+01 </wgt>
<wgt id='1714'> +7.3092053e+01 </wgt>
<wgt id='1715'> +7.4103800e+01 </wgt>
<wgt id='1716'> +7.3311622e+01 </wgt>
<wgt id='1717'> +7.3500273e+01 </wgt>
<wgt id='1718'> +7.3585337e+01 </wgt>
<wgt id='1719'> +7.3058030e+01 </wgt>
<wgt id='1720'> +7.2747643e+01 </wgt>
<wgt id='1721'> +7.2946636e+01 </wgt>
<wgt id='1722'> +7.4314169e+01 </wgt>
<wgt id='1723'> +7.3230665e+01 </wgt>
<wgt id='1724'> +7.3241205e+01 </wgt>
<wgt id='1725'> +7.3953504e+01 </wgt>
<wgt id='1726'> +7.3801582e+01 </wgt>
<wgt id='1727'> +7.5344558e+01 </wgt>
<wgt id='1728'> +7.3364500e+01 </wgt>
<wgt id='1729'> +7.3647832e+01 </wgt>
<wgt id='1730'> +7.3031925e+01 </wgt>
<wgt id='1731'> +7.3581707e+01 </wgt>
<wgt id='1732'> +7.3655629e+01 </wgt>
<wgt id='1733'> +7.3737640e+01 </wgt>
<wgt id='1734'> +7.3186500e+01 </wgt>
<wgt id='1735'> +7.3460914e+01 </wgt>
<wgt id='1736'> +7.1536697e+01 </wgt>
<wgt id='1737'> +7.4555637e+01 </wgt>
<wgt id='1738'> +7.5326123e+01 </wgt>
<wgt id='1739'> +7.5175435e+01 </wgt>
<wgt id='1740'> +7.5476301e+01 </wgt>
<wgt id='1741'> +7.5607840e+01 </wgt>
<wgt id='1742'> +7.5045155e+01 </wgt>
<wgt id='1743'> +7.5466846e+01 </wgt>
<wgt id='1744'> +7.5185646e+01 </wgt>
<wgt id='1745'> +7.5599897e+01 </wgt>
<wgt id='1746'> +7.5060952e+01 </wgt>
<wgt id='1747'> +7.5468551e+01 </wgt>
<wgt id='1748'> +7.5187946e+01 </wgt>
<wgt id='1749'> +7.5209504e+01 </wgt>
<wgt id='1750'> +7.5448711e+01 </wgt>
<wgt id='1751'> +7.4945350e+01 </wgt>
<wgt id='1752'> +7.5711498e+01 </wgt>
<wgt id='1753'> +7.5325895e+01 </wgt>
<wgt id='1754'> +7.5213843e+01 </wgt>
<wgt id='1755'> +7.5579244e+01 </wgt>
<wgt id='1756'> +7.5006172e+01 </wgt>
<wgt id='1757'> +7.4977934e+01 </wgt>
<wgt id='1758'> +7.5677984e+01 </wgt>
<wgt id='1759'> +7.5786045e+01 </wgt>
<wgt id='1760'> +7.4748790e+01 </wgt>
<wgt id='1761'> +7.5004854e+01 </wgt>
<wgt id='1762'> +7.5158247e+01 </wgt>
<wgt id='1763'> +7.5674401e+01 </wgt>
<wgt id='1764'> +7.5114495e+01 </wgt>
<wgt id='1765'> +7.5027596e+01 </wgt>
<wgt id='1766'> +7.5720114e+01 </wgt>
<wgt id='1767'> +7.5326123e+01 </wgt>
<wgt id='1768'> +7.5330997e+01 </wgt>
<wgt id='1769'> +7.5287740e+01 </wgt>
<wgt id='1770'> +7.5326413e+01 </wgt>
<wgt id='1771'> +7.5298308e+01 </wgt>
<wgt id='1772'> +7.5622260e+01 </wgt>
<wgt id='1773'> +7.4372665e+01 </wgt>
<wgt id='1774'> +7.4858454e+01 </wgt>
<wgt id='1775'> +7.5752672e+01 </wgt>
<wgt id='1776'> +7.7002567e+01 </wgt>
<wgt id='1777'> +7.3760865e+01 </wgt>
<wgt id='1778'> +7.5404017e+01 </wgt>
<wgt id='1779'> +7.3634500e+01 </wgt>
<wgt id='1780'> +7.4502916e+01 </wgt>
<wgt id='1781'> +7.1036051e+01 </wgt>
<wgt id='1782'> +7.0951402e+01 </wgt>
<wgt id='1783'> +7.1108776e+01 </wgt>
<wgt id='1784'> +7.1219468e+01 </wgt>
<wgt id='1785'> +7.0841339e+01 </wgt>
<wgt id='1786'> +7.1260054e+01 </wgt>
<wgt id='1787'> +7.0801034e+01 </wgt>
<wgt id='1788'> +7.1441132e+01 </wgt>
<wgt id='1789'> +7.0629815e+01 </wgt>
<wgt id='1790'> +7.1102814e+01 </wgt>
<wgt id='1791'> +7.0961182e+01 </wgt>
<wgt id='1792'> +7.1209969e+01 </wgt>
<wgt id='1793'> +7.0851251e+01 </wgt>
<wgt id='1794'> +7.0764003e+01 </wgt>
<wgt id='1795'> +7.1298400e+01 </wgt>
<wgt id='1796'> +7.0902435e+01 </wgt>
<wgt id='1797'> +7.1146001e+01 </wgt>
<wgt id='1798'> +7.0962239e+01 </wgt>
<wgt id='1799'> +7.1075218e+01 </wgt>
<wgt id='1800'> +7.0912825e+01 </wgt>
<wgt id='1801'> +7.1138299e+01 </wgt>
<wgt id='1802'> +7.0108256e+01 </wgt>
<wgt id='1803'> +7.1811034e+01 </wgt>
<wgt id='1804'> +7.1078535e+01 </wgt>
<wgt id='1805'> +7.0953508e+01 </wgt>
<wgt id='1806'> +7.0865973e+01 </wgt>
<wgt id='1807'> +7.0939610e+01 </wgt>
<wgt id='1808'> +7.1067299e+01 </wgt>
<wgt id='1809'> +7.1105349e+01 </wgt>
<wgt id='1810'> +7.1036367e+01 </wgt>
<wgt id='1811'> +7.1157575e+01 </wgt>
<wgt id='1812'> +7.0758046e+01 </wgt>
<wgt id='1813'> +7.1152754e+01 </wgt>
<wgt id='1814'> +7.0911510e+01 </wgt>
<wgt id='1815'> +7.0874066e+01 </wgt>
<wgt id='1816'> +7.1239186e+01 </wgt>
<wgt id='1817'> +7.0645432e+01 </wgt>
<wgt id='1818'> +7.1591556e+01 </wgt>
<wgt id='1819'> +7.2385834e+01 </wgt>
<wgt id='1820'> +6.9781234e+01 </wgt>
<wgt id='1821'> +7.0737520e+01 </wgt>
<wgt id='1822'> +7.0165319e+01 </wgt>
<wgt id='1823'> +7.0391168e+01 </wgt>
<wgt id='1824'> +7.3375083e+01 </wgt>
<wgt id='1825'> +7.3367841e+01 </wgt>
<wgt id='1826'> +7.3360509e+01 </wgt>
<wgt id='1827'> +7.3353203e+01 </wgt>
<wgt id='1828'> +7.3346088e+01 </wgt>
<wgt id='1829'> +7.3338839e+01 </wgt>
<wgt id='1830'> +7.3331516e+01 </wgt>
<wgt id='1831'> +7.3324182e+01 </wgt>
<wgt id='1832'> +7.3317095e+01 </wgt>
<wgt id='1833'> +7.3309790e+01 </wgt>
<wgt id='1834'> +7.3302484e+01 </wgt>
<wgt id='1835'> +7.3295252e+01 </wgt>
<wgt id='1836'> +7.3288093e+01 </wgt>
<wgt id='1837'> +7.3280798e+01 </wgt>
<wgt id='1838'> +7.3273495e+01 </wgt>
<wgt id='1839'> +7.3266225e+01 </wgt>
<wgt id='1840'> +7.3259093e+01 </wgt>
<wgt id='1841'> +7.3251778e+01 </wgt>
<wgt id='1842'> +7.3244522e+01 </wgt>
<wgt id='1843'> +7.3237320e+01 </wgt>
<wgt id='1844'> +7.3230084e+01 </wgt>
<wgt id='1845'> +7.3222758e+01 </wgt>
<wgt id='1846'> +7.3215547e+01 </wgt>
<wgt id='1847'> +7.3208386e+01 </wgt>
<wgt id='1848'> +7.3201173e+01 </wgt>
<wgt id='1849'> +7.3193904e+01 </wgt>
<wgt id='1850'> +7.3186608e+01 </wgt>
<wgt id='1851'> +7.3179402e+01 </wgt>
<wgt id='1852'> +7.3172218e+01 </wgt>
<wgt id='1853'> +7.3164893e+01 </wgt>
<wgt id='1854'> +7.3157597e+01 </wgt>
<wgt id='1855'> +7.2757086e+01 </wgt>
<wgt id='1856'> +7.2428968e+01 </wgt>
<wgt id='1857'> +7.3262199e+01 </wgt>
<wgt id='1858'> +7.1769482e+01 </wgt>
<wgt id='1859'> +7.2402605e+01 </wgt>
<wgt id='1860'> +7.3149429e+01 </wgt>
<wgt id='1861'> +7.2831463e+01 </wgt>
<wgt id='1862'> +7.3428656e+01 </wgt>
<wgt id='1863'> +7.3118036e+01 </wgt>
<wgt id='1864'> +7.2664148e+01 </wgt>
<wgt id='1865'> +7.2495816e+01 </wgt>
<wgt id='1866'> +7.4351568e+01 </wgt>
<wgt id='1867'> +7.1363740e+01 </wgt>
<wgt id='1868'> +7.1494033e+01 </wgt>
<wgt id='1869'> +7.1544821e+01 </wgt>
<wgt id='1870'> +7.2117268e+01 </wgt>
<wgt id='1871'> +7.3455268e+01 </wgt>
<wgt id='1872'> +7.2596812e+01 </wgt>
<wgt id='1873'> +7.2701647e+01 </wgt>
<wgt id='1874'> +7.2979143e+01 </wgt>
<wgt id='1875'> +7.3360122e+01 </wgt>
<wgt id='1876'> +7.2618315e+01 </wgt>
<wgt id='1877'> +7.2762931e+01 </wgt>
<wgt id='1878'> +7.2728147e+01 </wgt>
<wgt id='1879'> +7.2482974e+01 </wgt>
<wgt id='1880'> +7.2558249e+01 </wgt>
<wgt id='1881'> +7.2511994e+01 </wgt>
<wgt id='1882'> +7.3030930e+01 </wgt>
<wgt id='1883'> +7.2918712e+01 </wgt>
<wgt id='1884'> +7.2679783e+01 </wgt>
<wgt id='1885'> +7.2650438e+01 </wgt>
<wgt id='1886'> +7.3058280e+01 </wgt>
<wgt id='1887'> +7.2683024e+01 </wgt>
<wgt id='1888'> +7.2724413e+01 </wgt>
<wgt id='1889'> +7.2721143e+01 </wgt>
<wgt id='1890'> +7.2757125e+01 </wgt>
<wgt id='1891'> +7.2779211e+01 </wgt>
<wgt id='1892'> +7.2813017e+01 </wgt>
<wgt id='1893'> +7.2723144e+01 </wgt>
<wgt id='1894'> +7.2635130e+01 </wgt>
<wgt id='1895'> +7.2702064e+01 </wgt>
<wgt id='1896'> +7.2672511e+01 </wgt>
<wgt id='1897'> +7.2703498e+01 </wgt>
<wgt id='1898'> +7.2872705e+01 </wgt>
<wgt id='1899'> +7.2738602e+01 </wgt>
<wgt id='1900'> +7.2719862e+01 </wgt>
<wgt id='1901'> +7.2769048e+01 </wgt>
<wgt id='1902'> +7.2682489e+01 </wgt>
<wgt id='1903'> +7.2832895e+01 </wgt>
<wgt id='1904'> +7.2702300e+01 </wgt>
<wgt id='1905'> +7.2798525e+01 </wgt>
<wgt id='1906'> +7.2750064e+01 </wgt>
<wgt id='1907'> +7.2756522e+01 </wgt>
<wgt id='1908'> +7.2770664e+01 </wgt>
<wgt id='1909'> +7.2771249e+01 </wgt>
<wgt id='1910'> +7.2785330e+01 </wgt>
<wgt id='1911'> +7.2708430e+01 </wgt>
<wgt id='1912'> +7.2762743e+01 </wgt>
<wgt id='1913'> +7.2807932e+01 </wgt>
<wgt id='1914'> +7.2783915e+01 </wgt>
<wgt id='1915'> +7.2788860e+01 </wgt>
<wgt id='1916'> +7.2780963e+01 </wgt>
<wgt id='1917'> +7.2741331e+01 </wgt>
<wgt id='1918'> +7.2730000e+01 </wgt>
<wgt id='1919'> +7.2784623e+01 </wgt>
<wgt id='1920'> +7.2738356e+01 </wgt>
<wgt id='1921'> +7.2746664e+01 </wgt>
<wgt id='1922'> +7.2728123e+01 </wgt>
<wgt id='1923'> +7.2782008e+01 </wgt>
<wgt id='1924'> +7.2733537e+01 </wgt>
<wgt id='1925'> +7.2733700e+01 </wgt>
<wgt id='1926'> +7.2813101e+01 </wgt>
<wgt id='1927'> +7.2758049e+01 </wgt>
<wgt id='1928'> +7.2718271e+01 </wgt>
<wgt id='1929'> +7.2763102e+01 </wgt>
<wgt id='1930'> +7.2765830e+01 </wgt>
<wgt id='1931'> +7.2816918e+01 </wgt>
<wgt id='1932'> +7.2771187e+01 </wgt>
<wgt id='1933'> +7.2798847e+01 </wgt>
<wgt id='1934'> +7.2750038e+01 </wgt>
<wgt id='1935'> +7.2738011e+01 </wgt>
<wgt id='1936'> +7.2809745e+01 </wgt>
<wgt id='1937'> +7.2787717e+01 </wgt>
<wgt id='1938'> +7.2741521e+01 </wgt>
<wgt id='1939'> +7.2718360e+01 </wgt>
<wgt id='1940'> +7.2759457e+01 </wgt>
<wgt id='1941'> +7.2830132e+01 </wgt>
<wgt id='1942'> +7.2700764e+01 </wgt>
<wgt id='1943'> +7.2713124e+01 </wgt>
<wgt id='1944'> +7.2713165e+01 </wgt>
<wgt id='1945'> +7.2745484e+01 </wgt>
<wgt id='1946'> +7.2710300e+01 </wgt>
<wgt id='1947'> +7.2722255e+01 </wgt>
<wgt id='1948'> +7.2757578e+01 </wgt>
<wgt id='1949'> +7.2701937e+01 </wgt>
<wgt id='1950'> +7.2761910e+01 </wgt>
<wgt id='1951'> +7.2769423e+01 </wgt>
<wgt id='1952'> +7.2762012e+01 </wgt>
<wgt id='1953'> +7.2744895e+01 </wgt>
<wgt id='1954'> +7.2769747e+01 </wgt>
<wgt id='1955'> +7.2771590e+01 </wgt>
<wgt id='1956'> +7.2756627e+01 </wgt>
<wgt id='1957'> +7.2759320e+01 </wgt>
<wgt id='1958'> +7.2757483e+01 </wgt>
<wgt id='1959'> +7.2757594e+01 </wgt>
<wgt id='1960'> +7.2758323e+01 </wgt>
<wgt id='1961'> +7.2757262e+01 </wgt>
<wgt id='1962'> +7.2759608e+01 </wgt>
</rwgt>
</event>
<event npLO=" -1 " npNLO=" 1 ">
 7      1 +1.5146096e+02 1.20653040e+01 7.54677110e-03 1.70663360e-01
        2 -1    0    0  502    0 +0.0000000000e+00 +0.0000000000e+00 +1.7270145000e+03 1.7270145000e+03 0.0000000000e+00 0.0000e+00 9.0000e+00
       -2 -1    0    0    0  501 +0.0000000000e+00 +0.0000000000e+00 -5.7611654000e+00 5.7611654000e+00 0.0000000000e+00 0.0000e+00 9.0000e+00
       23  2    1    2    0    0 +2.2902291000e+00 -9.8889459000e+00 +1.6539952000e+03 1.6564259000e+03 8.9126162000e+01 0.0000e+00 0.0000e+00
       15  1    3    3    0    0 -3.1054037000e+01 -3.4616403000e+01 +7.1601222000e+02 7.1752303000e+02 1.7770000000e+00 0.0000e+00 9.0000e+00
      -15  1    3    3    0    0 +3.3344266000e+01 +2.4727457000e+01 +9.3798300000e+02 9.3890285000e+02 1.7770000000e+00 0.0000e+00 9.0000e+00
       22  1    1    2    0    0 +9.0243179000e+00 +1.4078526000e+01 +1.4203112000e+01 2.1940183000e+01 0.0000000000e+00 0.0000e+00 9.0000e+00
       21  1    1    2  502  501 -1.1314547000e+01 -4.1895805000e+00 +5.3055007000e+01 5.4409607000e+01 0.0000000000e+00 0.0000e+00 9.0000e+00
#aMCatNLO 1  0  0  2  6 0.26716659E+01 0.00000000E+00 -9  7  0 0.00000000E+00 0.00000000E+00 0.00000000E+00 0.00000000E+00 0.00000000E+00
<rwgt>
<wgt id='1001'> +1.5147000e+02 </wgt>
<wgt id='1002'> +1.5147000e+02 </wgt>
<wgt id='1003'> +1.4456000e+02 </wgt>
<wgt id='1004'> +1.4976000e+02 </wgt>
<wgt id='1005'> +1.5552000e+02 </wgt>
<wgt id='1006'> +1.5530000e+02 </wgt>
<wgt id='1007'> +1.4884000e+02 </wgt>
<wgt id='1008'> +1.5236000e+02 </wgt>
<wgt id='1009'> +1.5159000e+02 </wgt>
<wgt id='1010'> +1.4789000e+02 </wgt>
<wgt id='1011'> +1.5037000e+02 </wgt>
<wgt id='1012'> +1.5372000e+02 </wgt>
<wgt id='1013'> +1.5022000e+02 </wgt>
<wgt id='1014'> +1.5312000e+02 </wgt>
<wgt id='1015'> +1.5359000e+02 </wgt>
<wgt id='1016'> +1.5388000e+02 </wgt>
<wgt id='1017'> +1.5065000e+02 </wgt>
<wgt id='1018'> +1.4791000e+02 </wgt>
<wgt id='1019'> +1.4836000e+02 </wgt>
<wgt id='1020'> +1.4495000e+02 </wgt>
<wgt id='1021'> +1.5193000e+02 </wgt>
<wgt id='1022'> +1.5069000e+02 </wgt>
<wgt id='1023'> +1.5481000e+02 </wgt>
<wgt id='1024'> +1.4950000e+02 </wgt>
<wgt id='1025'> +1.5737000e+02 </wgt>
<wgt id='1026'> +1.5554000e+02 </wgt>
<wgt id='1027'> +1.5160000e+02 </wgt>
<wgt id='1028'> +1.5156000e+02 </wgt>
<wgt id='1029'> +1.4545000e+02 </wgt>
<wgt id='1030'> +1.5373000e+02 </wgt>
<wgt id='1031'> +1.5017000e+02 </wgt>
<wgt id='1032'> +1.5125000e+02 </wgt>
<wgt id='1033'> +1.5532000e+02 </wgt>
<wgt id='1034'> +1.5192000e+02 </wgt>
<wgt id='1035'> +1.5400000e+02 </wgt>
<wgt id='1036'> +1.5642000e+02 </wgt>
<wgt id='1037'> +1.5381000e+02 </wgt>
<wgt id='1038'> +1.4997000e+02 </wgt>
<wgt id='1039'> +1.4770000e+02 </wgt>
<wgt id='1040'> +1.4593000e+02 </wgt>
<wgt id='1041'> +1.5101000e+02 </wgt>
<wgt id='1042'> +1.5361000e+02 </wgt>
<wgt id='1043'> +1.5386000e+02 </wgt>
<wgt id='1044'> +1.5097000e+02 </wgt>
<wgt id='1045'> +1.5267000e+02 </wgt>
<wgt id='1046'> +1.5264000e+02 </wgt>
<wgt id='1047'> +1.5403000e+02 </wgt>
<wgt id='1048'> +1.5250000e+02 </wgt>
<wgt id='1049'> +1.4841000e+02 </wgt>
<wgt id='1050'> +1.5037000e+02 </wgt>
<wgt id='1051'> +1.5400000e+02 </wgt>
<wgt id='1052'> +1.5308000e+02 </wgt>
<wgt id='1053'> +1.5328000e+02 </wgt>
<wgt id='1054'> +1.5055000e+02 </wgt>
<wgt id='1055'> +1.5678000e+02 </wgt>
<wgt id='1056'> +1.5130000e+02 </wgt>
<wgt id='1057'> +1.5260000e+02 </wgt>
<wgt id='1058'> +1.4820000e+02 </wgt>
<wgt id='1059'> +1.5178000e+02 </wgt>
<wgt id='1060'> +1.5382000e+02 </wgt>
<wgt id='1061'> +1.4995000e+02 </wgt>
<wgt id='1062'> +1.5059000e+02 </wgt>
<wgt id='1063'> +1.5122000e+02 </wgt>
<wgt id='1064'> +1.5022000e+02 </wgt>
<wgt id='1065'> +1.5750000e+02 </wgt>
<wgt id='1066'> +1.4364000e+02 </wgt>
<wgt id='1067'> +1.5476000e+02 </wgt>
<wgt id='1068'> +1.5221000e+02 </wgt>
<wgt id='1069'> +1.5254000e+02 </wgt>
<wgt id='1070'> +1.5295000e+02 </wgt>
<wgt id='1071'> +1.4969000e+02 </wgt>
<wgt id='1072'> +1.5008000e+02 </wgt>
<wgt id='1073'> +1.5149000e+02 </wgt>
<wgt id='1074'> +1.5159000e+02 </wgt>
<wgt id='1075'> +1.4631000e+02 </wgt>
<wgt id='1076'> +1.5784000e+02 </wgt>
<wgt id='1077'> +1.5071000e+02 </wgt>
<wgt id='1078'> +1.5356000e+02 </wgt>
<wgt id='1079'> +1.5283000e+02 </wgt>
<wgt id='1080'> +1.5226000e+02 </wgt>
<wgt id='1081'> +1.5103000e+02 </wgt>
<wgt id='1082'> +1.5023000e+02 </wgt>
<wgt id='1083'> +1.5537000e+02 </wgt>
<wgt id='1084'> +1.5528000e+02 </wgt>
<wgt id='1085'> +1.4709000e+02 </wgt>
<wgt id='1086'> +1.5219000e+02 </wgt>
<wgt id='1087'> +1.4855000e+02 </wgt>
<wgt id='1088'> +1.4883000e+02 </wgt>
<wgt id='1089'> +1.5326000e+02 </wgt>
<wgt id='1090'> +1.5206000e+02 </wgt>
<wgt id='1091'> +1.4655000e+02 </wgt>
<wgt id='1092'> +1.5164000e+02 </wgt>
<wgt id='1093'> +1.5133000e+02 </wgt>
<wgt id='1094'> +1.5036000e+02 </wgt>
<wgt id='1095'> +1.4861000e+02 </wgt>
<wgt id='1096'> +1.5378000e+02 </wgt>
<wgt id='1097'> +1.4708000e+02 </wgt>
<wgt id='1098'> +1.5126000e+02 </wgt>
<wgt id='1099'> +1.5158000e+02 </wgt>
<wgt id='1100'> +1.5542000e+02 </wgt>
<wgt id='1101'> +1.5166000e+02 </wgt>
<wgt id='1102'> +1.4449000e+02 </wgt>
<wgt id='1103'> +1.4781000e+02 </wgt>
<wgt id='1104'> +1.5487000e+02 </wgt>
<wgt id='1105'> +1.5146096e+02 </wgt>
<wgt id='1106'> +5.7333413e+01 </wgt>
<wgt id='1107'> +1.0518126e+02 </wgt>
<wgt id='1108'> +7.9029170e+01 </wgt>
<wgt id='1109'> +5.9836177e+01 </wgt>
<wgt id='1110'> +1.0975378e+02 </wgt>
<wgt id='1111'> +7.0731101e+01 </wgt>
<wgt id='1112'> +5.3546108e+01 </wgt>
<wgt id='1113'> +9.8241280e+01 </wgt>
<wgt id='1114'> +7.8047631e+01 </wgt>
<wgt id='1115'> +7.7648424e+01 </wgt>
<wgt id='1116'> +7.8208363e+01 </wgt>
<wgt id='1117'> +7.7338157e+01 </wgt>
<wgt id='1118'> +7.6248917e+01 </wgt>
<wgt id='1119'> +7.7340922e+01 </wgt>
<wgt id='1120'> +7.7002202e+01 </wgt>
<wgt id='1121'> +7.8931110e+01 </wgt>
<wgt id='1122'> +8.0184177e+01 </wgt>
<wgt id='1123'> +7.7907179e+01 </wgt>
<wgt id='1124'> +7.3077047e+01 </wgt>
<wgt id='1125'> +7.7383609e+01 </wgt>
<wgt id='1126'> +7.7930209e+01 </wgt>
<wgt id='1127'> +7.7152954e+01 </wgt>
<wgt id='1128'> +7.9441995e+01 </wgt>
<wgt id='1129'> +7.9158160e+01 </wgt>
<wgt id='1130'> +7.7637190e+01 </wgt>
<wgt id='1131'> +7.8317961e+01 </wgt>
<wgt id='1132'> +7.8453103e+01 </wgt>
<wgt id='1133'> +7.8506356e+01 </wgt>
<wgt id='1134'> +7.7223490e+01 </wgt>
<wgt id='1135'> +7.8618462e+01 </wgt>
<wgt id='1136'> +7.9745393e+01 </wgt>
<wgt id='1137'> +7.9912163e+01 </wgt>
<wgt id='1138'> +7.7421571e+01 </wgt>
<wgt id='1139'> +7.9531565e+01 </wgt>
<wgt id='1140'> +7.9257513e+01 </wgt>
<wgt id='1141'> +7.7268900e+01 </wgt>
<wgt id='1142'> +7.8633507e+01 </wgt>
<wgt id='1143'> +7.7707565e+01 </wgt>
<wgt id='1144'> +7.6877932e+01 </wgt>
<wgt id='1145'> +7.9029233e+01 </wgt>
<wgt id='1146'> +7.7467801e+01 </wgt>
<wgt id='1147'> +7.8566829e+01 </wgt>
<wgt id='1148'> +7.7403191e+01 </wgt>
<wgt id='1149'> +7.6946988e+01 </wgt>
<wgt id='1150'> +7.8528937e+01 </wgt>
<wgt id='1151'> +7.7497617e+01 </wgt>
<wgt id='1152'> +7.7531536e+01 </wgt>
<wgt id='1153'> +7.6097255e+01 </wgt>
<wgt id='1154'> +7.9546610e+01 </wgt>
<wgt id='1155'> +7.7585525e+01 </wgt>
<wgt id='1156'> +7.8624368e+01 </wgt>
<wgt id='1157'> +7.7214193e+01 </wgt>
<wgt id='1158'> +7.7593347e+01 </wgt>
<wgt id='1159'> +7.7107063e+01 </wgt>
<wgt id='1160'> +7.7841221e+01 </wgt>
<wgt id='1161'> +7.7651754e+01 </wgt>
<wgt id='1162'> +8.0337157e+01 </wgt>
<wgt id='1163'> +7.8781519e+01 </wgt>
<wgt id='1164'> +7.8245686e+01 </wgt>
<wgt id='1165'> +7.7879880e+01 </wgt>
<wgt id='1166'> +7.9357635e+01 </wgt>
<wgt id='1167'> +7.8330018e+01 </wgt>
<wgt id='1168'> +7.9618854e+01 </wgt>
<wgt id='1169'> +8.0251671e+01 </wgt>
<wgt id='1170'> +7.7087844e+01 </wgt>
<wgt id='1171'> +7.9543208e+01 </wgt>
<wgt id='1172'> +7.8525367e+01 </wgt>
<wgt id='1173'> +7.8222167e+01 </wgt>
<wgt id='1174'> +7.9921547e+01 </wgt>
<wgt id='1175'> +7.7272147e+01 </wgt>
<wgt id='1176'> +7.8058689e+01 </wgt>
<wgt id='1177'> +7.8305552e+01 </wgt>
<wgt id='1178'> +8.0100737e+01 </wgt>
<wgt id='1179'> +7.8726202e+01 </wgt>
<wgt id='1180'> +7.6575612e+01 </wgt>
<wgt id='1181'> +7.8480796e+01 </wgt>
<wgt id='1182'> +7.7223821e+01 </wgt>
<wgt id='1183'> +7.7850603e+01 </wgt>
<wgt id='1184'> +7.8527311e+01 </wgt>
<wgt id='1185'> +7.8079543e+01 </wgt>
<wgt id='1186'> +7.5970343e+01 </wgt>
<wgt id='1187'> +7.7910027e+01 </wgt>
<wgt id='1188'> +7.7397796e+01 </wgt>
<wgt id='1189'> +7.5878606e+01 </wgt>
<wgt id='1190'> +7.8163806e+01 </wgt>
<wgt id='1191'> +7.7344107e+01 </wgt>
<wgt id='1192'> +7.9841552e+01 </wgt>
<wgt id='1193'> +7.7618890e+01 </wgt>
<wgt id='1194'> +7.4949477e+01 </wgt>
<wgt id='1195'> +7.9198990e+01 </wgt>
<wgt id='1196'> +7.7637190e+01 </wgt>
<wgt id='1197'> +7.6597330e+01 </wgt>
<wgt id='1198'> +7.8437222e+01 </wgt>
<wgt id='1199'> +7.9172664e+01 </wgt>
<wgt id='1200'> +7.7062750e+01 </wgt>
<wgt id='1201'> +7.9065564e+01 </wgt>
<wgt id='1202'> +7.7273455e+01 </wgt>
<wgt id='1203'> +7.4919216e+01 </wgt>
<wgt id='1204'> +7.8833864e+01 </wgt>
<wgt id='1205'> +7.9424804e+01 </wgt>
<wgt id='1206'> +7.8344132e+01 </wgt>
<wgt id='1207'> +7.8214819e+01 </wgt>
<wgt id='1208'> +7.7800229e+01 </wgt>
<wgt id='1209'> +7.8187037e+01 </wgt>
<wgt id='1210'> +7.9603262e+01 </wgt>
<wgt id='1211'> +7.6662451e+01 </wgt>
<wgt id='1212'> +7.6782109e+01 </wgt>
<wgt id='1213'> +7.9676054e+01 </wgt>
<wgt id='1214'> +7.9050958e+01 </wgt>
<wgt id='1215'> +7.7592891e+01 </wgt>
<wgt id='1216'> +7.6807070e+01 </wgt>
<wgt id='1217'> +7.6860813e+01 </wgt>
<wgt id='1218'> +7.6736232e+01 </wgt>
<wgt id='1219'> +7.6742505e+01 </wgt>
<wgt id='1220'> +7.6711940e+01 </wgt>
<wgt id='1221'> +7.6650074e+01 </wgt>
<wgt id='1222'> +7.6824035e+01 </wgt>
<wgt id='1223'> +7.6604547e+01 </wgt>
<wgt id='1224'> +7.6688090e+01 </wgt>
<wgt id='1225'> +7.6640450e+01 </wgt>
<wgt id='1226'> +7.6827527e+01 </wgt>
<wgt id='1227'> +7.6861733e+01 </wgt>
<wgt id='1228'> +7.6708870e+01 </wgt>
<wgt id='1229'> +7.6733948e+01 </wgt>
<wgt id='1230'> +7.6981992e+01 </wgt>
<wgt id='1231'> +7.6695433e+01 </wgt>
<wgt id='1232'> +7.6650152e+01 </wgt>
<wgt id='1233'> +7.6861419e+01 </wgt>
<wgt id='1234'> +7.6774279e+01 </wgt>
<wgt id='1235'> +7.6749502e+01 </wgt>
<wgt id='1236'> +7.6644203e+01 </wgt>
<wgt id='1237'> +7.6862141e+01 </wgt>
<wgt id='1238'> +7.6958897e+01 </wgt>
<wgt id='1239'> +7.7110456e+01 </wgt>
<wgt id='1240'> +7.6779466e+01 </wgt>
<wgt id='1241'> +7.6587677e+01 </wgt>
<wgt id='1242'> +7.6753663e+01 </wgt>
<wgt id='1243'> +7.6805894e+01 </wgt>
<wgt id='1244'> +7.6988574e+01 </wgt>
<wgt id='1245'> +7.7143463e+01 </wgt>
<wgt id='1246'> +7.6097429e+01 </wgt>
<wgt id='1247'> +7.6507256e+01 </wgt>
<wgt id='1248'> +7.6930118e+01 </wgt>
<wgt id='1249'> +7.6910968e+01 </wgt>
<wgt id='1250'> +7.6886698e+01 </wgt>
<wgt id='1251'> +7.6984018e+01 </wgt>
<wgt id='1252'> +7.6898139e+01 </wgt>
<wgt id='1253'> +7.6596668e+01 </wgt>
<wgt id='1254'> +7.6859902e+01 </wgt>
<wgt id='1255'> +7.6807568e+01 </wgt>
<wgt id='1256'> +7.6804967e+01 </wgt>
<wgt id='1257'> +7.6901791e+01 </wgt>
<wgt id='1258'> +7.6942904e+01 </wgt>
<wgt id='1259'> +7.6692511e+01 </wgt>
<wgt id='1260'> +7.6890266e+01 </wgt>
<wgt id='1261'> +7.6864134e+01 </wgt>
<wgt id='1262'> +7.6668552e+01 </wgt>
<wgt id='1263'> +7.6749389e+01 </wgt>
<wgt id='1264'> +7.6900864e+01 </wgt>
<wgt id='1265'> +7.6786075e+01 </wgt>
<wgt id='1266'> +7.6737769e+01 </wgt>
<wgt id='1267'> +7.6942762e+01 </wgt>
<wgt id='1268'> +7.6973660e+01 </wgt>
<wgt id='1269'> +7.6837413e+01 </wgt>
<wgt id='1270'> +7.6884848e+01 </wgt>
<wgt id='1271'> +7.6662397e+01 </wgt>
<wgt id='1272'> +7.6913262e+01 </wgt>
<wgt id='1273'> +7.6801212e+01 </wgt>
<wgt id='1274'> +7.6876691e+01 </wgt>
<wgt id='1275'> +7.6830820e+01 </wgt>
<wgt id='1276'> +7.6809193e+01 </wgt>
<wgt id='1277'> +7.6737429e+01 </wgt>
<wgt id='1278'> +7.6722112e+01 </wgt>
<wgt id='1279'> +7.6765216e+01 </wgt>
<wgt id='1280'> +7.6718994e+01 </wgt>
<wgt id='1281'> +7.6809215e+01 </wgt>
<wgt id='1282'> +7.6759744e+01 </wgt>
<wgt id='1283'> +7.6822724e+01 </wgt>
<wgt id='1284'> +7.6859477e+01 </wgt>
<wgt id='1285'> +7.6777032e+01 </wgt>
<wgt id='1286'> +7.6629144e+01 </wgt>
<wgt id='1287'> +7.6723198e+01 </wgt>
<wgt id='1288'> +7.6750127e+01 </wgt>
<wgt id='1289'> +7.6680219e+01 </wgt>
<wgt id='1290'> +7.6788636e+01 </wgt>
<wgt id='1291'> +7.6887861e+01 </wgt>
<wgt id='1292'> +7.6743085e+01 </wgt>
<wgt id='1293'> +7.6765126e+01 </wgt>
<wgt id='1294'> +7.6873712e+01 </wgt>
<wgt id='1295'> +7.6798653e+01 </wgt>
<wgt id='1296'> +7.6699814e+01 </wgt>
<wgt id='1297'> +7.6702637e+01 </wgt>
<wgt id='1298'> +7.6858715e+01 </wgt>
<wgt id='1299'> +7.6804421e+01 </wgt>
<wgt id='1300'> +7.6864962e+01 </wgt>
<wgt id='1301'> +7.6885655e+01 </wgt>
<wgt id='1302'> +7.6736875e+01 </wgt>
<wgt id='1303'> +7.6814313e+01 </wgt>
<wgt id='1304'> +7.6784084e+01 </wgt>
<wgt id='1305'> +7.6827339e+01 </wgt>
<wgt id='1306'> +7.6795650e+01 </wgt>
<wgt id='1307'> +7.6747224e+01 </wgt>
<wgt id='1308'> +7.6798745e+01 </wgt>
<wgt id='1309'> +7.6806713e+01 </wgt>
<wgt id='1310'> +7.6890236e+01 </wgt>
<wgt id='1311'> +7.6768061e+01 </wgt>
<wgt id='1312'> +7.6811530e+01 </wgt>
<wgt id='1313'> +7.6801552e+01 </wgt>
<wgt id='1314'> +7.6827872e+01 </wgt>
<wgt id='1315'> +7.6832001e+01 </wgt>
<wgt id='1316'> +7.6833686e+01 </wgt>
<wgt id='1317'> +7.3221584e+01 </wgt>
<wgt id='1318'> +8.0694015e+01 </wgt>
<wgt id='1319'> +8.1562336e+01 </wgt>
<wgt id='1320'> +7.8248149e+01 </wgt>
<wgt id='1321'> +7.8389217e+01 </wgt>
<wgt id='1322'> +7.8473234e+01 </wgt>
<wgt id='1323'> +7.8814888e+01 </wgt>
<wgt id='1324'> +7.9283405e+01 </wgt>
<wgt id='1325'> +7.8009047e+01 </wgt>
<wgt id='1326'> +7.7743866e+01 </wgt>
<wgt id='1327'> +7.7850574e+01 </wgt>
<wgt id='1328'> +7.9573557e+01 </wgt>
<wgt id='1329'> +7.7146839e+01 </wgt>
<wgt id='1330'> +7.9017774e+01 </wgt>
<wgt id='1331'> +7.9135387e+01 </wgt>
<wgt id='1332'> +7.7631014e+01 </wgt>
<wgt id='1333'> +7.6214969e+01 </wgt>
<wgt id='1334'> +7.9300913e+01 </wgt>
<wgt id='1335'> +7.8260727e+01 </wgt>
<wgt id='1336'> +7.8031513e+01 </wgt>
<wgt id='1337'> +7.9107180e+01 </wgt>
<wgt id='1338'> +7.7237107e+01 </wgt>
<wgt id='1339'> +7.8526620e+01 </wgt>
<wgt id='1340'> +7.7843512e+01 </wgt>
<wgt id='1341'> +7.7928431e+01 </wgt>
<wgt id='1342'> +7.8603584e+01 </wgt>
<wgt id='1343'> +7.7738780e+01 </wgt>
<wgt id='1344'> +7.8752754e+01 </wgt>
<wgt id='1345'> +7.6907855e+01 </wgt>
<wgt id='1346'> +7.9579420e+01 </wgt>
<wgt id='1347'> +7.8158321e+01 </wgt>
<wgt id='1348'> +7.8307140e+01 </wgt>
<wgt id='1349'> +7.7760633e+01 </wgt>
<wgt id='1350'> +7.8408475e+01 </wgt>
<wgt id='1351'> +7.8215293e+01 </wgt>
<wgt id='1352'> +7.8289270e+01 </wgt>
<wgt id='1353'> +7.8412388e+01 </wgt>
<wgt id='1354'> +7.7859911e+01 </wgt>
<wgt id='1355'> +7.8660980e+01 </wgt>
<wgt id='1356'> +7.7808413e+01 </wgt>
<wgt id='1357'> +7.8502431e+01 </wgt>
<wgt id='1358'> +7.7750893e+01 </wgt>
<wgt id='1359'> +7.7651108e+01 </wgt>
<wgt id='1360'> +7.8429046e+01 </wgt>
<wgt id='1361'> +7.9029102e+01 </wgt>
<wgt id='1362'> +7.7412568e+01 </wgt>
<wgt id='1363'> +7.7940822e+01 </wgt>
<wgt id='1364'> +7.8204985e+01 </wgt>
<wgt id='1365'> +7.8173264e+01 </wgt>
<wgt id='1366'> +7.8286795e+01 </wgt>
<wgt id='1367'> +7.8333723e+01 </wgt>
<wgt id='1368'> +7.9020269e+01 </wgt>
<wgt id='1369'> +7.8900254e+01 </wgt>
<wgt id='1370'> +7.8689698e+01 </wgt>
<wgt id='1371'> +7.8431544e+01 </wgt>
<wgt id='1372'> +7.9021046e+01 </wgt>
<wgt id='1373'> +7.7903768e+01 </wgt>
<wgt id='1374'> +7.7056948e+01 </wgt>
<wgt id='1375'> +7.7331793e+01 </wgt>
<wgt id='1376'> +7.8683949e+01 </wgt>
<wgt id='1377'> +7.4687508e+01 </wgt>
<wgt id='1378'> +8.1793191e+01 </wgt>
<wgt id='1379'> +7.8416878e+01 </wgt>
<wgt id='1380'> +7.5082725e+01 </wgt>
<wgt id='1381'> +8.1765170e+01 </wgt>
<wgt id='1382'> +8.3969323e+01 </wgt>
<wgt id='1383'> +7.5373901e+01 </wgt>
<wgt id='1384'> +7.7183906e+01 </wgt>
<wgt id='1385'> +1.1182814e+02 </wgt>
<wgt id='1386'> +1.1166649e+02 </wgt>
<wgt id='1387'> +1.1201396e+02 </wgt>
<wgt id='1388'> +1.1145002e+02 </wgt>
<wgt id='1389'> +1.1248747e+02 </wgt>
<wgt id='1390'> +1.1204859e+02 </wgt>
<wgt id='1391'> +1.1157430e+02 </wgt>
<wgt id='1392'> +1.1301725e+02 </wgt>
<wgt id='1393'> +1.1101036e+02 </wgt>
<wgt id='1394'> +1.1188396e+02 </wgt>
<wgt id='1395'> +1.1175743e+02 </wgt>
<wgt id='1396'> +1.1188270e+02 </wgt>
<wgt id='1397'> +1.1180507e+02 </wgt>
<wgt id='1398'> +1.1105909e+02 </wgt>
<wgt id='1399'> +1.1240012e+02 </wgt>
<wgt id='1400'> +1.1236615e+02 </wgt>
<wgt id='1401'> +1.1140660e+02 </wgt>
<wgt id='1402'> +1.1232727e+02 </wgt>
<wgt id='1403'> +1.1159931e+02 </wgt>
<wgt id='1404'> +1.1000092e+02 </wgt>
<wgt id='1405'> +1.1270807e+02 </wgt>
<wgt id='1406'> +1.1180306e+02 </wgt>
<wgt id='1407'> +1.1185223e+02 </wgt>
<wgt id='1408'> +1.1172418e+02 </wgt>
<wgt id='1409'> +1.1203388e+02 </wgt>
<wgt id='1410'> +1.1235229e+02 </wgt>
<wgt id='1411'> +1.1049327e+02 </wgt>
<wgt id='1412'> +1.1238827e+02 </wgt>
<wgt id='1413'> +1.1080784e+02 </wgt>
<wgt id='1414'> +1.1183894e+02 </wgt>
<wgt id='1415'> +1.1169178e+02 </wgt>
<wgt id='1416'> +1.1186008e+02 </wgt>
<wgt id='1417'> +1.1181991e+02 </wgt>
<wgt id='1418'> +1.1164941e+02 </wgt>
<wgt id='1419'> +1.1208456e+02 </wgt>
<wgt id='1420'> +1.1150675e+02 </wgt>
<wgt id='1421'> +1.1178938e+02 </wgt>
<wgt id='1422'> +1.1204735e+02 </wgt>
<wgt id='1423'> +1.1159088e+02 </wgt>
<wgt id='1424'> +1.1232095e+02 </wgt>
<wgt id='1425'> +1.1063674e+02 </wgt>
<wgt id='1426'> +1.1202701e+02 </wgt>
<wgt id='1427'> +1.1192668e+02 </wgt>
<wgt id='1428'> +1.1183314e+02 </wgt>
<wgt id='1429'> +1.1116637e+02 </wgt>
<wgt id='1430'> +1.1204885e+02 </wgt>
<wgt id='1431'> +1.1196608e+02 </wgt>
<wgt id='1432'> +1.1200509e+02 </wgt>
<wgt id='1433'> +1.1206289e+02 </wgt>
<wgt id='1434'> +1.1179553e+02 </wgt>
<wgt id='1435'> +1.1199246e+02 </wgt>
<wgt id='1436'> +6.8645706e+01 </wgt>
<wgt id='1437'> +6.8678296e+01 </wgt>
<wgt id='1438'> +6.8624018e+01 </wgt>
<wgt id='1439'> +6.8643429e+01 </wgt>
<wgt id='1440'> +6.8779492e+01 </wgt>
<wgt id='1441'> +6.8836199e+01 </wgt>
<wgt id='1442'> +6.8378211e+01 </wgt>
<wgt id='1443'> +6.8983343e+01 </wgt>
<wgt id='1444'> +6.8404525e+01 </wgt>
<wgt id='1445'> +6.7858305e+01 </wgt>
<wgt id='1446'> +6.8958813e+01 </wgt>
<wgt id='1447'> +6.8713543e+01 </wgt>
<wgt id='1448'> +6.8491141e+01 </wgt>
<wgt id='1449'> +6.8886442e+01 </wgt>
<wgt id='1450'> +6.8712739e+01 </wgt>
<wgt id='1451'> +6.8894969e+01 </wgt>
<wgt id='1452'> +6.8345847e+01 </wgt>
<wgt id='1453'> +6.8567301e+01 </wgt>
<wgt id='1454'> +6.8811907e+01 </wgt>
<wgt id='1455'> +6.8442736e+01 </wgt>
<wgt id='1456'> +6.8567301e+01 </wgt>
<wgt id='1457'> +6.8894750e+01 </wgt>
<wgt id='1458'> +6.9060919e+01 </wgt>
<wgt id='1459'> +6.8924543e+01 </wgt>
<wgt id='1460'> +6.8688060e+01 </wgt>
<wgt id='1461'> +6.9161325e+01 </wgt>
<wgt id='1462'> +6.8596666e+01 </wgt>
<wgt id='1463'> +6.8505041e+01 </wgt>
<wgt id='1464'> +6.8190489e+01 </wgt>
<wgt id='1465'> +8.0863477e+01 </wgt>
<wgt id='1466'> +7.6362725e+01 </wgt>
<wgt id='1467'> +7.6208515e+01 </wgt>
<wgt id='1468'> +7.5619964e+01 </wgt>
<wgt id='1469'> +7.6812669e+01 </wgt>
<wgt id='1470'> +7.6271054e+01 </wgt>
<wgt id='1471'> +7.6766766e+01 </wgt>
<wgt id='1472'> +7.5793734e+01 </wgt>
<wgt id='1473'> +7.7167411e+01 </wgt>
<wgt id='1474'> +7.6909106e+01 </wgt>
<wgt id='1475'> +7.5938370e+01 </wgt>
<wgt id='1476'> +7.6237034e+01 </wgt>
<wgt id='1477'> +7.6226512e+01 </wgt>
<wgt id='1478'> +7.6072944e+01 </wgt>
<wgt id='1479'> +7.6888885e+01 </wgt>
<wgt id='1480'> +7.6269572e+01 </wgt>
<wgt id='1481'> +7.6163383e+01 </wgt>
<wgt id='1482'> +7.6306098e+01 </wgt>
<wgt id='1483'> +7.6107544e+01 </wgt>
<wgt id='1484'> +7.6874857e+01 </wgt>
<wgt id='1485'> +7.6167258e+01 </wgt>
<wgt id='1486'> +7.6479029e+01 </wgt>
<wgt id='1487'> +7.6438850e+01 </wgt>
<wgt id='1488'> +7.6050713e+01 </wgt>
<wgt id='1489'> +7.6746909e+01 </wgt>
<wgt id='1490'> +7.6280683e+01 </wgt>
<wgt id='1491'> +7.6790142e+01 </wgt>
<wgt id='1492'> +7.6340934e+01 </wgt>
<wgt id='1493'> +7.6156383e+01 </wgt>
<wgt id='1494'> +7.6703598e+01 </wgt>
<wgt id='1495'> +7.6325503e+01 </wgt>
<wgt id='1496'> +7.6194874e+01 </wgt>
<wgt id='1497'> +7.6372863e+01 </wgt>
<wgt id='1498'> +7.6300418e+01 </wgt>
<wgt id='1499'> +7.6256959e+01 </wgt>
<wgt id='1500'> +7.6339150e+01 </wgt>
<wgt id='1501'> +7.6548305e+01 </wgt>
<wgt id='1502'> +7.6316518e+01 </wgt>
<wgt id='1503'> +7.6370781e+01 </wgt>
<wgt id='1504'> +7.6376410e+01 </wgt>
<wgt id='1505'> +7.6432041e+01 </wgt>
<wgt id='1506'> +7.6413118e+01 </wgt>
<wgt id='1507'> +7.6488734e+01 </wgt>
<wgt id='1508'> +7.6606274e+01 </wgt>
<wgt id='1509'> +7.6259397e+01 </wgt>
<wgt id='1510'> +7.6359987e+01 </wgt>
<wgt id='1511'> +7.6477247e+01 </wgt>
<wgt id='1512'> +7.6438692e+01 </wgt>
<wgt id='1513'> +7.6319112e+01 </wgt>
<wgt id='1514'> +7.6148195e+01 </wgt>
<wgt id='1515'> +7.6367934e+01 </wgt>
<wgt id='1516'> +7.6312602e+01 </wgt>
<wgt id='1517'> +7.6362341e+01 </wgt>
<wgt id='1518'> +7.6345169e+01 </wgt>
<wgt id='1519'> +7.6217777e+01 </wgt>
<wgt id='1520'> +7.6332979e+01 </wgt>
<wgt id='1521'> +7.6330371e+01 </wgt>
<wgt id='1522'> +7.6263851e+01 </wgt>
<wgt id='1523'> +7.6409507e+01 </wgt>
<wgt id='1524'> +7.6332360e+01 </wgt>
<wgt id='1525'> +7.6245218e+01 </wgt>
<wgt id='1526'> +7.6387984e+01 </wgt>
<wgt id='1527'> +7.6417793e+01 </wgt>
<wgt id='1528'> +7.6306925e+01 </wgt>
<wgt id='1529'> +7.6379968e+01 </wgt>
<wgt id='1530'> +7.6349418e+01 </wgt>
<wgt id='1531'> +7.6366527e+01 </wgt>
<wgt id='1532'> +7.6404227e+01 </wgt>
<wgt id='1533'> +7.6384042e+01 </wgt>
<wgt id='1534'> +7.6409463e+01 </wgt>
<wgt id='1535'> +7.6342557e+01 </wgt>
<wgt id='1536'> +7.6372742e+01 </wgt>
<wgt id='1537'> +7.6317260e+01 </wgt>
<wgt id='1538'> +7.6296207e+01 </wgt>
<wgt id='1539'> +7.6345507e+01 </wgt>
<wgt id='1540'> +7.6449033e+01 </wgt>
<wgt id='1541'> +7.6347223e+01 </wgt>
<wgt id='1542'> +7.6324550e+01 </wgt>
<wgt id='1543'> +7.6387337e+01 </wgt>
<wgt id='1544'> +7.6400341e+01 </wgt>
<wgt id='1545'> +7.6353263e+01 </wgt>
<wgt id='1546'> +7.6381312e+01 </wgt>
<wgt id='1547'> +7.6380945e+01 </wgt>
<wgt id='1548'> +7.6320380e+01 </wgt>
<wgt id='1549'> +7.6427060e+01 </wgt>
<wgt id='1550'> +7.6360735e+01 </wgt>
<wgt id='1551'> +7.6370857e+01 </wgt>
<wgt id='1552'> +7.6390895e+01 </wgt>
<wgt id='1553'> +7.6341953e+01 </wgt>
<wgt id='1554'> +7.6362592e+01 </wgt>
<wgt id='1555'> +7.6356772e+01 </wgt>
<wgt id='1556'> +7.6364683e+01 </wgt>
<wgt id='1557'> +7.6377824e+01 </wgt>
<wgt id='1558'> +7.6371915e+01 </wgt>
<wgt id='1559'> +7.6383621e+01 </wgt>
<wgt id='1560'> +7.6360277e+01 </wgt>
<wgt id='1561'> +7.6373659e+01 </wgt>
<wgt id='1562'> +7.6337575e+01 </wgt>
<wgt id='1563'> +7.6368787e+01 </wgt>
<wgt id='1564'> +7.6378542e+01 </wgt>
<wgt id='1565'> +7.6369350e+01 </wgt>
<wgt id='1566'> +7.6345475e+01 </wgt>
<wgt id='1567'> +7.3625127e+01 </wgt>
<wgt id='1568'> +7.9133375e+01 </wgt>
<wgt id='1569'> +7.7721263e+01 </wgt>
<wgt id='1570'> +7.7852855e+01 </wgt>
<wgt id='1571'> +7.7436577e+01 </wgt>
<wgt id='1572'> +7.8003261e+01 </wgt>
<wgt id='1573'> +7.8071854e+01 </wgt>
<wgt id='1574'> +7.7703222e+01 </wgt>
<wgt id='1575'> +7.8239152e+01 </wgt>
<wgt id='1576'> +7.8496837e+01 </wgt>
<wgt id='1577'> +7.8060230e+01 </wgt>
<wgt id='1578'> +7.7840256e+01 </wgt>
<wgt id='1579'> +7.7829004e+01 </wgt>
<wgt id='1580'> +7.8080909e+01 </wgt>
<wgt id='1581'> +7.7260109e+01 </wgt>
<wgt id='1582'> +7.7728760e+01 </wgt>
<wgt id='1583'> +7.7320183e+01 </wgt>
<wgt id='1584'> +7.7594691e+01 </wgt>
<wgt id='1585'> +7.7727178e+01 </wgt>
<wgt id='1586'> +7.7906300e+01 </wgt>
<wgt id='1587'> +7.7707706e+01 </wgt>
<wgt id='1588'> +7.7164936e+01 </wgt>
<wgt id='1589'> +7.7908830e+01 </wgt>
<wgt id='1590'> +7.8019665e+01 </wgt>
<wgt id='1591'> +7.7447084e+01 </wgt>
<wgt id='1592'> +7.8166562e+01 </wgt>
<wgt id='1593'> +7.8088917e+01 </wgt>
<wgt id='1594'> +7.7624901e+01 </wgt>
<wgt id='1595'> +7.7603396e+01 </wgt>
<wgt id='1596'> +7.7863072e+01 </wgt>
<wgt id='1597'> +7.7679245e+01 </wgt>
<wgt id='1598'> +7.7552638e+01 </wgt>
<wgt id='1599'> +7.7727624e+01 </wgt>
<wgt id='1600'> +7.7949936e+01 </wgt>
<wgt id='1601'> +7.7864165e+01 </wgt>
<wgt id='1602'> +7.7887035e+01 </wgt>
<wgt id='1603'> +7.7908476e+01 </wgt>
<wgt id='1604'> +7.7425353e+01 </wgt>
<wgt id='1605'> +7.7834404e+01 </wgt>
<wgt id='1606'> +7.7728255e+01 </wgt>
<wgt id='1607'> +7.7902388e+01 </wgt>
<wgt id='1608'> +7.7530701e+01 </wgt>
<wgt id='1609'> +7.7637595e+01 </wgt>
<wgt id='1610'> +7.7746475e+01 </wgt>
<wgt id='1611'> +7.7696567e+01 </wgt>
<wgt id='1612'> +7.7545229e+01 </wgt>
<wgt id='1613'> +7.7738705e+01 </wgt>
<wgt id='1614'> +7.7832600e+01 </wgt>
<wgt id='1615'> +7.7686426e+01 </wgt>
<wgt id='1616'> +7.7582926e+01 </wgt>
<wgt id='1617'> +7.7742567e+01 </wgt>
<wgt id='1618'> +7.7633970e+01 </wgt>
<wgt id='1619'> +7.7825783e+01 </wgt>
<wgt id='1620'> +7.7881713e+01 </wgt>
<wgt id='1621'> +7.7877320e+01 </wgt>
<wgt id='1622'> +7.7698986e+01 </wgt>
<wgt id='1623'> +7.7695097e+01 </wgt>
<wgt id='1624'> +7.7760975e+01 </wgt>
<wgt id='1625'> +7.7762703e+01 </wgt>
<wgt id='1626'> +7.7714774e+01 </wgt>
<wgt id='1627'> +7.7631375e+01 </wgt>
<wgt id='1628'> +7.7675524e+01 </wgt>
<wgt id='1629'> +7.7757204e+01 </wgt>
<wgt id='1630'> +7.7637196e+01 </wgt>
<wgt id='1631'> +7.7736474e+01 </wgt>
<wgt id='1632'> +7.7735189e+01 </wgt>
<wgt id='1633'> +7.7821706e+01 </wgt>
<wgt id='1634'> +7.7711757e+01 </wgt>
<wgt id='1635'> +7.7683042e+01 </wgt>
<wgt id='1636'> +7.7736708e+01 </wgt>
<wgt id='1637'> +7.7707722e+01 </wgt>
<wgt id='1638'> +7.7772972e+01 </wgt>
<wgt id='1639'> +7.7678784e+01 </wgt>
<wgt id='1640'> +7.7736233e+01 </wgt>
<wgt id='1641'> +7.7813333e+01 </wgt>
<wgt id='1642'> +7.7695532e+01 </wgt>
<wgt id='1643'> +7.7762556e+01 </wgt>
<wgt id='1644'> +7.7722114e+01 </wgt>
<wgt id='1645'> +7.7717431e+01 </wgt>
<wgt id='1646'> +7.7714675e+01 </wgt>
<wgt id='1647'> +7.7771338e+01 </wgt>
<wgt id='1648'> +7.7706978e+01 </wgt>
<wgt id='1649'> +7.7742570e+01 </wgt>
<wgt id='1650'> +7.7735342e+01 </wgt>
<wgt id='1651'> +7.7750319e+01 </wgt>
<wgt id='1652'> +7.7673576e+01 </wgt>
<wgt id='1653'> +7.7733194e+01 </wgt>
<wgt id='1654'> +7.7732294e+01 </wgt>
<wgt id='1655'> +7.7743557e+01 </wgt>
<wgt id='1656'> +7.7718903e+01 </wgt>
<wgt id='1657'> +7.7699802e+01 </wgt>
<wgt id='1658'> +7.7737021e+01 </wgt>
<wgt id='1659'> +7.7724322e+01 </wgt>
<wgt id='1660'> +7.7707081e+01 </wgt>
<wgt id='1661'> +7.7705544e+01 </wgt>
<wgt id='1662'> +7.7715306e+01 </wgt>
<wgt id='1663'> +7.7759079e+01 </wgt>
<wgt id='1664'> +7.7723627e+01 </wgt>
<wgt id='1665'> +7.7704019e+01 </wgt>
<wgt id='1666'> +7.7738845e+01 </wgt>
<wgt id='1667'> +7.7703929e+01 </wgt>
<wgt id='1668'> +7.7724686e+01 </wgt>
<wgt id='1669'> +7.7718745e+01 </wgt>
<wgt id='1670'> +7.5070325e+01 </wgt>
<wgt id='1671'> +8.0372564e+01 </wgt>
<wgt id='1672'> +7.6478069e+01 </wgt>
<wgt id='1673'> +7.5861372e+01 </wgt>
<wgt id='1674'> +7.5993655e+01 </wgt>
<wgt id='1675'> +7.6462201e+01 </wgt>
<wgt id='1676'> +7.7520626e+01 </wgt>
<wgt id='1677'> +7.6711639e+01 </wgt>
<wgt id='1678'> +7.6491578e+01 </wgt>
<wgt id='1679'> +7.6391424e+01 </wgt>
<wgt id='1680'> +7.6671542e+01 </wgt>
<wgt id='1681'> +7.6670721e+01 </wgt>
<wgt id='1682'> +7.6511361e+01 </wgt>
<wgt id='1683'> +7.6366597e+01 </wgt>
<wgt id='1684'> +7.7166654e+01 </wgt>
<wgt id='1685'> +7.6462760e+01 </wgt>
<wgt id='1686'> +7.6425731e+01 </wgt>
<wgt id='1687'> +7.6679762e+01 </wgt>
<wgt id='1688'> +7.6602193e+01 </wgt>
<wgt id='1689'> +7.5464114e+01 </wgt>
<wgt id='1690'> +7.6456230e+01 </wgt>
<wgt id='1691'> +7.6699565e+01 </wgt>
<wgt id='1692'> +7.6777205e+01 </wgt>
<wgt id='1693'> +7.6277927e+01 </wgt>
<wgt id='1694'> +7.6293058e+01 </wgt>
<wgt id='1695'> +7.6484117e+01 </wgt>
<wgt id='1696'> +7.6182705e+01 </wgt>
<wgt id='1697'> +7.6629260e+01 </wgt>
<wgt id='1698'> +7.6300917e+01 </wgt>
<wgt id='1699'> +7.6472097e+01 </wgt>
<wgt id='1700'> +7.6403753e+01 </wgt>
<wgt id='1701'> +7.6291601e+01 </wgt>
<wgt id='1702'> +7.6544034e+01 </wgt>
<wgt id='1703'> +7.3625127e+01 </wgt>
<wgt id='1704'> +7.9133375e+01 </wgt>
<wgt id='1705'> +7.7730580e+01 </wgt>
<wgt id='1706'> +7.8110638e+01 </wgt>
<wgt id='1707'> +7.7697475e+01 </wgt>
<wgt id='1708'> +7.7635793e+01 </wgt>
<wgt id='1709'> +7.6761675e+01 </wgt>
<wgt id='1710'> +7.6944458e+01 </wgt>
<wgt id='1711'> +7.7725212e+01 </wgt>
<wgt id='1712'> +7.7615012e+01 </wgt>
<wgt id='1713'> +7.7386553e+01 </wgt>
<wgt id='1714'> +7.7386290e+01 </wgt>
<wgt id='1715'> +7.8433822e+01 </wgt>
<wgt id='1716'> +7.7897053e+01 </wgt>
<wgt id='1717'> +7.7759101e+01 </wgt>
<wgt id='1718'> +7.7801700e+01 </wgt>
<wgt id='1719'> +7.7758015e+01 </wgt>
<wgt id='1720'> +7.7581433e+01 </wgt>
<wgt id='1721'> +7.7605823e+01 </wgt>
<wgt id='1722'> +7.7143714e+01 </wgt>
<wgt id='1723'> +7.7713029e+01 </wgt>
<wgt id='1724'> +7.7782591e+01 </wgt>
<wgt id='1725'> +7.7651152e+01 </wgt>
<wgt id='1726'> +7.7598951e+01 </wgt>
<wgt id='1727'> +7.7852813e+01 </wgt>
<wgt id='1728'> +7.7657573e+01 </wgt>
<wgt id='1729'> +7.7866627e+01 </wgt>
<wgt id='1730'> +7.7746601e+01 </wgt>
<wgt id='1731'> +7.7778702e+01 </wgt>
<wgt id='1732'> +7.7794357e+01 </wgt>
<wgt id='1733'> +7.7920437e+01 </wgt>
<wgt id='1734'> +7.7809607e+01 </wgt>
<wgt id='1735'> +7.7894520e+01 </wgt>
<wgt id='1736'> +7.5070325e+01 </wgt>
<wgt id='1737'> +8.0372564e+01 </wgt>
<wgt id='1738'> +8.6828904e+01 </wgt>
<wgt id='1739'> +8.6848577e+01 </wgt>
<wgt id='1740'> +8.6809541e+01 </wgt>
<wgt id='1741'> +8.6917252e+01 </wgt>
<wgt id='1742'> +8.6740404e+01 </wgt>
<wgt id='1743'> +8.6579904e+01 </wgt>
<wgt id='1744'> +8.7077483e+01 </wgt>
<wgt id='1745'> +8.6781494e+01 </wgt>
<wgt id='1746'> +8.6871865e+01 </wgt>
<wgt id='1747'> +8.7494262e+01 </wgt>
<wgt id='1748'> +8.6166287e+01 </wgt>
<wgt id='1749'> +8.6910866e+01 </wgt>
<wgt id='1750'> +8.6680069e+01 </wgt>
<wgt id='1751'> +8.6772993e+01 </wgt>
<wgt id='1752'> +8.6877443e+01 </wgt>
<wgt id='1753'> +8.6723795e+01 </wgt>
<wgt id='1754'> +8.7130258e+01 </wgt>
<wgt id='1755'> +8.6607578e+01 </wgt>
<wgt id='1756'> +8.6868825e+01 </wgt>
<wgt id='1757'> +8.6581278e+01 </wgt>
<wgt id='1758'> +8.7150243e+01 </wgt>
<wgt id='1759'> +8.6906663e+01 </wgt>
<wgt id='1760'> +8.6704160e+01 </wgt>
<wgt id='1761'> +8.6070207e+01 </wgt>
<wgt id='1762'> +8.7293676e+01 </wgt>
<wgt id='1763'> +8.6766564e+01 </wgt>
<wgt id='1764'> +8.6753370e+01 </wgt>
<wgt id='1765'> +8.6227600e+01 </wgt>
<wgt id='1766'> +8.7357002e+01 </wgt>
<wgt id='1767'> +8.6828904e+01 </wgt>
<wgt id='1768'> +8.6778849e+01 </wgt>
<wgt id='1769'> +8.6806814e+01 </wgt>
<wgt id='1770'> +8.6751993e+01 </wgt>
<wgt id='1771'> +8.6826836e+01 </wgt>
<wgt id='1772'> +8.7375032e+01 </wgt>
<wgt id='1773'> +8.6526330e+01 </wgt>
<wgt id='1774'> +8.6687254e+01 </wgt>
<wgt id='1775'> +8.6979335e+01 </wgt>
<wgt id='1776'> +8.6293597e+01 </wgt>
<wgt id='1777'> +8.7404323e+01 </wgt>
<wgt id='1778'> +8.6662196e+01 </wgt>
<wgt id='1779'> +8.7489145e+01 </wgt>
<wgt id='1780'> +8.7986112e+01 </wgt>
<wgt id='1781'> +8.6730973e+01 </wgt>
<wgt id='1782'> +8.6794032e+01 </wgt>
<wgt id='1783'> +8.6700096e+01 </wgt>
<wgt id='1784'> +8.6895246e+01 </wgt>
<wgt id='1785'> +8.6598227e+01 </wgt>
<wgt id='1786'> +8.6554631e+01 </wgt>
<wgt id='1787'> +8.6938546e+01 </wgt>
<wgt id='1788'> +8.6499122e+01 </wgt>
<wgt id='1789'> +8.6985241e+01 </wgt>
<wgt id='1790'> +8.7271337e+01 </wgt>
<wgt id='1791'> +8.6213690e+01 </wgt>
<wgt id='1792'> +8.7124115e+01 </wgt>
<wgt id='1793'> +8.6368326e+01 </wgt>
<wgt id='1794'> +8.6610278e+01 </wgt>
<wgt id='1795'> +8.6892108e+01 </wgt>
<wgt id='1796'> +8.6784877e+01 </wgt>
<wgt id='1797'> +8.6998693e+01 </wgt>
<wgt id='1798'> +8.6856391e+01 </wgt>
<wgt id='1799'> +8.6619354e+01 </wgt>
<wgt id='1800'> +8.6635058e+01 </wgt>
<wgt id='1801'> +8.6848922e+01 </wgt>
<wgt id='1802'> +8.6178127e+01 </wgt>
<wgt id='1803'> +8.7247481e+01 </wgt>
<wgt id='1804'> +8.6558163e+01 </wgt>
<wgt id='1805'> +8.6743604e+01 </wgt>
<wgt id='1806'> +8.6836690e+01 </wgt>
<wgt id='1807'> +8.6318816e+01 </wgt>
<wgt id='1808'> +8.6511099e+01 </wgt>
<wgt id='1809'> +8.6880110e+01 </wgt>
<wgt id='1810'> +8.6505323e+01 </wgt>
<wgt id='1811'> +8.6746263e+01 </wgt>
<wgt id='1812'> +8.6086587e+01 </wgt>
<wgt id='1813'> +8.6837799e+01 </wgt>
<wgt id='1814'> +8.6271386e+01 </wgt>
<wgt id='1815'> +8.6567094e+01 </wgt>
<wgt id='1816'> +8.6382606e+01 </wgt>
<wgt id='1817'> +8.6358651e+01 </wgt>
<wgt id='1818'> +8.6722294e+01 </wgt>
<wgt id='1819'> +8.5373620e+01 </wgt>
<wgt id='1820'> +8.7147896e+01 </wgt>
<wgt id='1821'> +8.5632031e+01 </wgt>
<wgt id='1822'> +8.7467060e+01 </wgt>
<wgt id='1823'> +8.6070181e+01 </wgt>
<wgt id='1824'> +7.7370763e+01 </wgt>
<wgt id='1825'> +7.7358410e+01 </wgt>
<wgt id='1826'> +7.7346413e+01 </wgt>
<wgt id='1827'> +7.7334280e+01 </wgt>
<wgt id='1828'> +7.7321998e+01 </wgt>
<wgt id='1829'> +7.7309550e+01 </wgt>
<wgt id='1830'> +7.7297205e+01 </wgt>
<wgt id='1831'> +7.7284960e+01 </wgt>
<wgt id='1832'> +7.7272948e+01 </wgt>
<wgt id='1833'> +7.7260717e+01 </wgt>
<wgt id='1834'> +7.7248227e+01 </wgt>
<wgt id='1835'> +7.7236031e+01 </wgt>
<wgt id='1836'> +7.7223818e+01 </wgt>
<wgt id='1837'> +7.7211796e+01 </wgt>
<wgt id='1838'> +7.7199155e+01 </wgt>
<wgt id='1839'> +7.7186813e+01 </wgt>
<wgt id='1840'> +7.7174907e+01 </wgt>
<wgt id='1841'> +7.7162620e+01 </wgt>
<wgt id='1842'> +7.7150339e+01 </wgt>
<wgt id='1843'> +7.7137635e+01 </wgt>
<wgt id='1844'> +7.7125379e+01 </wgt>
<wgt id='1845'> +7.7113421e+01 </wgt>
<wgt id='1846'> +7.7101106e+01 </wgt>
<wgt id='1847'> +7.7089164e+01 </wgt>
<wgt id='1848'> +7.7076364e+01 </wgt>
<wgt id='1849'> +7.7064168e+01 </wgt>
<wgt id='1850'> +7.7052249e+01 </wgt>
<wgt id='1851'> +7.7040055e+01 </wgt>
<wgt id='1852'> +7.7027789e+01 </wgt>
<wgt id='1853'> +7.7015329e+01 </wgt>
<wgt id='1854'> +7.7003092e+01 </wgt>
<wgt id='1855'> +7.7129454e+01 </wgt>
<wgt id='1856'> +7.7257188e+01 </wgt>
<wgt id='1857'> +7.6847160e+01 </wgt>
<wgt id='1858'> +7.7408399e+01 </wgt>
<wgt id='1859'> +7.7477875e+01 </wgt>
<wgt id='1860'> +7.7113042e+01 </wgt>
<wgt id='1861'> +7.7645245e+01 </wgt>
<wgt id='1862'> +7.7900679e+01 </wgt>
<wgt id='1863'> +7.7465725e+01 </wgt>
<wgt id='1864'> +7.7247655e+01 </wgt>
<wgt id='1865'> +7.7234931e+01 </wgt>
<wgt id='1866'> +7.7490109e+01 </wgt>
<wgt id='1867'> +7.6673928e+01 </wgt>
<wgt id='1868'> +7.7137486e+01 </wgt>
<wgt id='1869'> +7.6731593e+01 </wgt>
<wgt id='1870'> +7.7000192e+01 </wgt>
<wgt id='1871'> +7.7138421e+01 </wgt>
<wgt id='1872'> +7.7311780e+01 </wgt>
<wgt id='1873'> +7.7116479e+01 </wgt>
<wgt id='1874'> +7.6578739e+01 </wgt>
<wgt id='1875'> +7.7317965e+01 </wgt>
<wgt id='1876'> +7.7423669e+01 </wgt>
<wgt id='1877'> +7.6857751e+01 </wgt>
<wgt id='1878'> +7.7569811e+01 </wgt>
<wgt id='1879'> +7.7492473e+01 </wgt>
<wgt id='1880'> +7.7033335e+01 </wgt>
<wgt id='1881'> +7.7010521e+01 </wgt>
<wgt id='1882'> +7.7271754e+01 </wgt>
<wgt id='1883'> +7.7089243e+01 </wgt>
<wgt id='1884'> +7.6961694e+01 </wgt>
<wgt id='1885'> +7.7134813e+01 </wgt>
<wgt id='1886'> +7.7357242e+01 </wgt>
<wgt id='1887'> +7.7271065e+01 </wgt>
<wgt id='1888'> +7.7292823e+01 </wgt>
<wgt id='1889'> +7.7315185e+01 </wgt>
<wgt id='1890'> +7.6835162e+01 </wgt>
<wgt id='1891'> +7.7241961e+01 </wgt>
<wgt id='1892'> +7.7136326e+01 </wgt>
<wgt id='1893'> +7.7309095e+01 </wgt>
<wgt id='1894'> +7.6938907e+01 </wgt>
<wgt id='1895'> +7.7046122e+01 </wgt>
<wgt id='1896'> +7.7154926e+01 </wgt>
<wgt id='1897'> +7.7105013e+01 </wgt>
<wgt id='1898'> +7.6955189e+01 </wgt>
<wgt id='1899'> +7.7146077e+01 </wgt>
<wgt id='1900'> +7.7240498e+01 </wgt>
<wgt id='1901'> +7.7094841e+01 </wgt>
<wgt id='1902'> +7.6992381e+01 </wgt>
<wgt id='1903'> +7.7150302e+01 </wgt>
<wgt id='1904'> +7.7043304e+01 </wgt>
<wgt id='1905'> +7.7233073e+01 </wgt>
<wgt id='1906'> +7.7288703e+01 </wgt>
<wgt id='1907'> +7.7284934e+01 </wgt>
<wgt id='1908'> +7.7107815e+01 </wgt>
<wgt id='1909'> +7.7104091e+01 </wgt>
<wgt id='1910'> +7.7168930e+01 </wgt>
<wgt id='1911'> +7.7170143e+01 </wgt>
<wgt id='1912'> +7.7122388e+01 </wgt>
<wgt id='1913'> +7.7040932e+01 </wgt>
<wgt id='1914'> +7.7084177e+01 </wgt>
<wgt id='1915'> +7.7165242e+01 </wgt>
<wgt id='1916'> +7.7045846e+01 </wgt>
<wgt id='1917'> +7.7144535e+01 </wgt>
<wgt id='1918'> +7.7143198e+01 </wgt>
<wgt id='1919'> +7.7229498e+01 </wgt>
<wgt id='1920'> +7.7119154e+01 </wgt>
<wgt id='1921'> +7.7091143e+01 </wgt>
<wgt id='1922'> +7.7144479e+01 </wgt>
<wgt id='1923'> +7.7116223e+01 </wgt>
<wgt id='1924'> +7.7180886e+01 </wgt>
<wgt id='1925'> +7.7087125e+01 </wgt>
<wgt id='1926'> +7.7144634e+01 </wgt>
<wgt id='1927'> +7.7220176e+01 </wgt>
<wgt id='1928'> +7.7103906e+01 </wgt>
<wgt id='1929'> +7.7170340e+01 </wgt>
<wgt id='1930'> +7.7130351e+01 </wgt>
<wgt id='1931'> +7.7126248e+01 </wgt>
<wgt id='1932'> +7.7122977e+01 </wgt>
<wgt id='1933'> +7.7178998e+01 </wgt>
<wgt id='1934'> +7.7115365e+01 </wgt>
<wgt id='1935'> +7.7150451e+01 </wgt>
<wgt id='1936'> +7.7143608e+01 </wgt>
<wgt id='1937'> +7.7158327e+01 </wgt>
<wgt id='1938'> +7.7082420e+01 </wgt>
<wgt id='1939'> +7.7140706e+01 </wgt>
<wgt id='1940'> +7.7140063e+01 </wgt>
<wgt id='1941'> +7.7151771e+01 </wgt>
<wgt id='1942'> +7.7126683e+01 </wgt>
<wgt id='1943'> +7.7107915e+01 </wgt>
<wgt id='1944'> +7.7144858e+01 </wgt>
<wgt id='1945'> +7.7131721e+01 </wgt>
<wgt id='1946'> +7.7114965e+01 </wgt>
<wgt id='1947'> +7.7113611e+01 </wgt>
<wgt id='1948'> +7.7123424e+01 </wgt>
<wgt id='1949'> +7.7166167e+01 </wgt>
<wgt id='1950'> +7.7131925e+01 </wgt>
<wgt id='1951'> +7.7112353e+01 </wgt>
<wgt id='1952'> +7.7146550e+01 </wgt>
<wgt id='1953'> +7.7112311e+01 </wgt>
<wgt id='1954'> +7.7133125e+01 </wgt>
<wgt id='1955'> +7.7126931e+01 </wgt>
<wgt id='1956'> +7.7129100e+01 </wgt>
<wgt id='1957'> +7.7131397e+01 </wgt>
<wgt id='1958'> +7.7129821e+01 </wgt>
<wgt id='1959'> +7.7129887e+01 </wgt>
<wgt id='1960'> +7.7130547e+01 </wgt>
<wgt id='1961'> +7.7129611e+01 </wgt>
<wgt id='1962'> +7.7131776e+01 </wgt>
</rwgt>
</event>
<event npLO=" -1 " npNLO=" 1 ">
 7      1 +1.5146096e+02 1.30934590e+01 7.54677110e-03 1.55372780e-01
       -1 -1    0    0    0  501 +0.0000000000e+00 +0.0000000000e+00 +3.0762624000e+01 3.0762624000e+01 0.0000000000e+00 0.0000e+00 9.0000e+00
        1 -1    0    0  502    0 +0.0000000000e+00 +0.0000000000e+00 -1.2888656000e+02 1.2888656000e+02 0.0000000000e+00 0.0000e+00 9.0000e+00
       23  2    1    2    0    0 +6.5991324000e+00 +1.1308851000e+01 -9.8649924000e+01 1.4654516000e+02 1.0757434000e+02 0.0000e+00 0.0000e+00
       11  1    3    3    0    0 -3.6041177000e+01 -3.1227617000e+01 -3.7242563000e+01 6.0507346000e+01 0.0000000000e+00 0.0000e+00 9.0000e+00
      -11  1    3    3    0    0 +2.8472740000e+01 +2.9607987000e+01 -4.2432145000e+01 5.9057741000e+01 0.0000000000e+00 0.0000e+00 9.0000e+00
       22  1    3    3    0    0 +1.4167569000e+01 +1.2928482000e+01 -1.8975216000e+01 2.6980076000e+01 0.0000000000e+00 0.0000e+00 9.0000e+00
       21  1    1    2  502  501 -6.5991324000e+00 -1.1308851000e+01 +5.2598987000e-01 1.3104020000e+01 0.0000000000e+00 0.0000e+00 9.0000e+00
#aMCatNLO 1  0  0  1  1 0.95862332E+02 0.00000000E+00 -9  7  0 0.00000000E+00 0.00000000E+00 0.00000000E+00 0.00000000E+00 0.00000000E+00
<rwgt>
<wgt id='1001'> +1.5146000e+02 </wgt>
<wgt id='1002'> +1.5146000e+02 </wgt>
<wgt id='1003'> +1.4253000e+02 </wgt>
<wgt id='1004'> +1.5762000e+02 </wgt>
<wgt id='1005'> +1.6675000e+02 </wgt>
<wgt id='1006'> +1.5922000e+02 </wgt>
<wgt id='1007'> +1.3222000e+02 </wgt>
<wgt id='1008'> +1.3936000e+02 </wgt>
<wgt id='1009'> +1.5735000e+02 </wgt>
<wgt id='1010'> +1.5260000e+02 </wgt>
<wgt id='1011'> +1.5216000e+02 </wgt>
<wgt id='1012'> +1.4879000e+02 </wgt>
<wgt id='1013'> +1.5016000e+02 </wgt>
<wgt id='1014'> +1.5154000e+02 </wgt>
<wgt id='1015'> +1.5776000e+02 </wgt>
<wgt id='1016'> +1.5164000e+02 </wgt>
<wgt id='1017'> +1.5225000e+02 </wgt>
<wgt id='1018'> +1.4297000e+02 </wgt>
<wgt id='1019'> +1.4573000e+02 </wgt>
<wgt id='1020'> +1.3877000e+02 </wgt>
<wgt id='1021'> +1.5398000e+02 </wgt>
<wgt id='1022'> +1.5082000e+02 </wgt>
<wgt id='1023'> +1.6691000e+02 </wgt>
<wgt id='1024'> +1.5802000e+02 </wgt>
<wgt id='1025'> +1.5506000e+02 </wgt>
<wgt id='1026'> +1.5188000e+02 </wgt>
<wgt id='1027'> +1.5327000e+02 </wgt>
<wgt id='1028'> +1.5267000e+02 </wgt>
<wgt id='1029'> +1.5012000e+02 </wgt>
<wgt id='1030'> +1.4861000e+02 </wgt>
<wgt id='1031'> +1.5160000e+02 </wgt>
<wgt id='1032'> +1.5505000e+02 </wgt>
<wgt id='1033'> +1.6007000e+02 </wgt>
<wgt id='1034'> +1.4333000e+02 </wgt>
<wgt id='1035'> +1.5590000e+02 </wgt>
<wgt id='1036'> +1.4701000e+02 </wgt>
<wgt id='1037'> +1.6076000e+02 </wgt>
<wgt id='1038'> +1.4756000e+02 </wgt>
<wgt id='1039'> +1.5177000e+02 </wgt>
<wgt id='1040'> +1.4161000e+02 </wgt>
<wgt id='1041'> +1.5370000e+02 </wgt>
<wgt id='1042'> +1.5401000e+02 </wgt>
<wgt id='1043'> +1.6062000e+02 </wgt>
<wgt id='1044'> +1.5460000e+02 </wgt>
<wgt id='1045'> +1.5093000e+02 </wgt>
<wgt id='1046'> +1.4975000e+02 </wgt>
<wgt id='1047'> +1.5443000e+02 </wgt>
<wgt id='1048'> +1.4949000e+02 </wgt>
<wgt id='1049'> +1.5050000e+02 </wgt>
<wgt id='1050'> +1.4960000e+02 </wgt>
<wgt id='1051'> +1.5394000e+02 </wgt>
<wgt id='1052'> +1.5763000e+02 </wgt>
<wgt id='1053'> +1.5918000e+02 </wgt>
<wgt id='1054'> +1.4859000e+02 </wgt>
<wgt id='1055'> +1.4351000e+02 </wgt>
<wgt id='1056'> +1.5464000e+02 </wgt>
<wgt id='1057'> +1.4941000e+02 </wgt>
<wgt id='1058'> +1.4721000e+02 </wgt>
<wgt id='1059'> +1.5929000e+02 </wgt>
<wgt id='1060'> +1.5445000e+02 </wgt>
<wgt id='1061'> +1.5469000e+02 </wgt>
<wgt id='1062'> +1.5607000e+02 </wgt>
<wgt id='1063'> +1.5123000e+02 </wgt>
<wgt id='1064'> +1.5506000e+02 </wgt>
<wgt id='1065'> +1.4301000e+02 </wgt>
<wgt id='1066'> +1.4955000e+02 </wgt>
<wgt id='1067'> +1.5425000e+02 </wgt>
<wgt id='1068'> +1.4964000e+02 </wgt>
<wgt id='1069'> +1.5238000e+02 </wgt>
<wgt id='1070'> +1.5616000e+02 </wgt>
<wgt id='1071'> +1.4917000e+02 </wgt>
<wgt id='1072'> +1.4726000e+02 </wgt>
<wgt id='1073'> +1.4815000e+02 </wgt>
<wgt id='1074'> +1.3705000e+02 </wgt>
<wgt id='1075'> +1.3338000e+02 </wgt>
<wgt id='1076'> +1.4917000e+02 </wgt>
<wgt id='1077'> +1.5574000e+02 </wgt>
<wgt id='1078'> +1.3357000e+02 </wgt>
<wgt id='1079'> +1.4637000e+02 </wgt>
<wgt id='1080'> +1.5429000e+02 </wgt>
<wgt id='1081'> +1.4639000e+02 </wgt>
<wgt id='1082'> +1.5695000e+02 </wgt>
<wgt id='1083'> +1.5557000e+02 </wgt>
<wgt id='1084'> +1.6022000e+02 </wgt>
<wgt id='1085'> +1.4686000e+02 </wgt>
<wgt id='1086'> +1.5303000e+02 </wgt>
<wgt id='1087'> +1.5349000e+02 </wgt>
<wgt id='1088'> +1.5210000e+02 </wgt>
<wgt id='1089'> +1.5212000e+02 </wgt>
<wgt id='1090'> +1.5915000e+02 </wgt>
<wgt id='1091'> +1.4503000e+02 </wgt>
<wgt id='1092'> +1.5514000e+02 </wgt>
<wgt id='1093'> +1.6688000e+02 </wgt>
<wgt id='1094'> +1.4727000e+02 </wgt>
<wgt id='1095'> +1.5017000e+02 </wgt>
<wgt id='1096'> +1.5120000e+02 </wgt>
<wgt id='1097'> +1.4840000e+02 </wgt>
<wgt id='1098'> +1.4808000e+02 </wgt>
<wgt id='1099'> +1.5495000e+02 </wgt>
<wgt id='1100'> +1.5146000e+02 </wgt>
<wgt id='1101'> +1.5751000e+02 </wgt>
<wgt id='1102'> +1.4991000e+02 </wgt>
<wgt id='1103'> +1.4863000e+02 </wgt>
<wgt id='1104'> +1.5569000e+02 </wgt>
<wgt id='1105'> +1.5146096e+02 </wgt>
<wgt id='1106'> +6.8243769e+01 </wgt>
<wgt id='1107'> +8.4845106e+01 </wgt>
<wgt id='1108'> +8.1190835e+01 </wgt>
<wgt id='1109'> +7.3541719e+01 </wgt>
<wgt id='1110'> +9.0268312e+01 </wgt>
<wgt id='1111'> +7.1224512e+01 </wgt>
<wgt id='1112'> +6.3527708e+01 </wgt>
<wgt id='1113'> +8.1002864e+01 </wgt>
<wgt id='1114'> +8.5666323e+01 </wgt>
<wgt id='1115'> +9.5185720e+01 </wgt>
<wgt id='1116'> +8.8125888e+01 </wgt>
<wgt id='1117'> +7.5782156e+01 </wgt>
<wgt id='1118'> +8.3089383e+01 </wgt>
<wgt id='1119'> +8.3880711e+01 </wgt>
<wgt id='1120'> +9.5659373e+01 </wgt>
<wgt id='1121'> +8.8201973e+01 </wgt>
<wgt id='1122'> +8.0084718e+01 </wgt>
<wgt id='1123'> +8.4050898e+01 </wgt>
<wgt id='1124'> +8.4226356e+01 </wgt>
<wgt id='1125'> +8.4067079e+01 </wgt>
<wgt id='1126'> +8.4070633e+01 </wgt>
<wgt id='1127'> +8.4476298e+01 </wgt>
<wgt id='1128'> +8.2332902e+01 </wgt>
<wgt id='1129'> +8.7764358e+01 </wgt>
<wgt id='1130'> +8.7322628e+01 </wgt>
<wgt id='1131'> +8.9849042e+01 </wgt>
<wgt id='1132'> +8.5499794e+01 </wgt>
<wgt id='1133'> +8.5633005e+01 </wgt>
<wgt id='1134'> +7.9409789e+01 </wgt>
<wgt id='1135'> +8.2904772e+01 </wgt>
<wgt id='1136'> +8.6988721e+01 </wgt>
<wgt id='1137'> +9.1584652e+01 </wgt>
<wgt id='1138'> +8.5455878e+01 </wgt>
<wgt id='1139'> +8.4431641e+01 </wgt>
<wgt id='1140'> +8.2939838e+01 </wgt>
<wgt id='1141'> +9.1432434e+01 </wgt>
<wgt id='1142'> +8.6350457e+01 </wgt>
<wgt id='1143'> +8.6750690e+01 </wgt>
<wgt id='1144'> +9.1299656e+01 </wgt>
<wgt id='1145'> +8.5888032e+01 </wgt>
<wgt id='1146'> +8.6978974e+01 </wgt>
<wgt id='1147'> +9.0676645e+01 </wgt>
<wgt id='1148'> +8.2316946e+01 </wgt>
<wgt id='1149'> +8.5170811e+01 </wgt>
<wgt id='1150'> +8.4883845e+01 </wgt>
<wgt id='1151'> +8.5145618e+01 </wgt>
<wgt id='1152'> +8.4269035e+01 </wgt>
<wgt id='1153'> +8.3811292e+01 </wgt>
<wgt id='1154'> +8.0386934e+01 </wgt>
<wgt id='1155'> +8.4223469e+01 </wgt>
<wgt id='1156'> +8.9651576e+01 </wgt>
<wgt id='1157'> +8.8577682e+01 </wgt>
<wgt id='1158'> +8.9815955e+01 </wgt>
<wgt id='1159'> +8.5817603e+01 </wgt>
<wgt id='1160'> +8.7363021e+01 </wgt>
<wgt id='1161'> +8.8575799e+01 </wgt>
<wgt id='1162'> +7.9728230e+01 </wgt>
<wgt id='1163'> +9.1622712e+01 </wgt>
<wgt id='1164'> +8.5435608e+01 </wgt>
<wgt id='1165'> +8.4264107e+01 </wgt>
<wgt id='1166'> +8.5598122e+01 </wgt>
<wgt id='1167'> +8.6026825e+01 </wgt>
<wgt id='1168'> +9.1859545e+01 </wgt>
<wgt id='1169'> +7.8577133e+01 </wgt>
<wgt id='1170'> +8.8843679e+01 </wgt>
<wgt id='1171'> +9.0657896e+01 </wgt>
<wgt id='1172'> +8.5928008e+01 </wgt>
<wgt id='1173'> +8.5214868e+01 </wgt>
<wgt id='1174'> +8.4987526e+01 </wgt>
<wgt id='1175'> +9.1427141e+01 </wgt>
<wgt id='1176'> +8.8288609e+01 </wgt>
<wgt id='1177'> +8.1138420e+01 </wgt>
<wgt id='1178'> +7.8623092e+01 </wgt>
<wgt id='1179'> +8.9382651e+01 </wgt>
<wgt id='1180'> +8.5049037e+01 </wgt>
<wgt id='1181'> +8.4208663e+01 </wgt>
<wgt id='1182'> +8.9954974e+01 </wgt>
<wgt id='1183'> +8.7846558e+01 </wgt>
<wgt id='1184'> +8.6364200e+01 </wgt>
<wgt id='1185'> +8.4618577e+01 </wgt>
<wgt id='1186'> +8.5214297e+01 </wgt>
<wgt id='1187'> +8.1068754e+01 </wgt>
<wgt id='1188'> +7.9712938e+01 </wgt>
<wgt id='1189'> +8.4006822e+01 </wgt>
<wgt id='1190'> +8.4619465e+01 </wgt>
<wgt id='1191'> +8.3306894e+01 </wgt>
<wgt id='1192'> +8.8130842e+01 </wgt>
<wgt id='1193'> +8.4609305e+01 </wgt>
<wgt id='1194'> +8.5485557e+01 </wgt>
<wgt id='1195'> +8.5589616e+01 </wgt>
<wgt id='1196'> +8.7322628e+01 </wgt>
<wgt id='1197'> +8.3419879e+01 </wgt>
<wgt id='1198'> +8.2856961e+01 </wgt>
<wgt id='1199'> +8.3794574e+01 </wgt>
<wgt id='1200'> +9.4696602e+01 </wgt>
<wgt id='1201'> +8.7100006e+01 </wgt>
<wgt id='1202'> +8.9426960e+01 </wgt>
<wgt id='1203'> +7.7190111e+01 </wgt>
<wgt id='1204'> +8.5552887e+01 </wgt>
<wgt id='1205'> +8.7224243e+01 </wgt>
<wgt id='1206'> +8.0861410e+01 </wgt>
<wgt id='1207'> +8.4925357e+01 </wgt>
<wgt id='1208'> +9.1298614e+01 </wgt>
<wgt id='1209'> +8.5052528e+01 </wgt>
<wgt id='1210'> +8.5710134e+01 </wgt>
<wgt id='1211'> +8.6144989e+01 </wgt>
<wgt id='1212'> +8.3179453e+01 </wgt>
<wgt id='1213'> +7.9019221e+01 </wgt>
<wgt id='1214'> +8.4609505e+01 </wgt>
<wgt id='1215'> +8.2148856e+01 </wgt>
<wgt id='1216'> +8.2366983e+01 </wgt>
<wgt id='1217'> +8.2228884e+01 </wgt>
<wgt id='1218'> +8.2822469e+01 </wgt>
<wgt id='1219'> +8.2092319e+01 </wgt>
<wgt id='1220'> +8.3012933e+01 </wgt>
<wgt id='1221'> +8.2442339e+01 </wgt>
<wgt id='1222'> +8.1672044e+01 </wgt>
<wgt id='1223'> +8.2913270e+01 </wgt>
<wgt id='1224'> +8.3081850e+01 </wgt>
<wgt id='1225'> +8.3028446e+01 </wgt>
<wgt id='1226'> +8.1664748e+01 </wgt>
<wgt id='1227'> +8.1935389e+01 </wgt>
<wgt id='1228'> +8.2447603e+01 </wgt>
<wgt id='1229'> +8.3374159e+01 </wgt>
<wgt id='1230'> +8.2317032e+01 </wgt>
<wgt id='1231'> +8.1705934e+01 </wgt>
<wgt id='1232'> +8.3811485e+01 </wgt>
<wgt id='1233'> +8.1725439e+01 </wgt>
<wgt id='1234'> +8.2858599e+01 </wgt>
<wgt id='1235'> +8.2544809e+01 </wgt>
<wgt id='1236'> +8.1899158e+01 </wgt>
<wgt id='1237'> +8.3210718e+01 </wgt>
<wgt id='1238'> +8.2141924e+01 </wgt>
<wgt id='1239'> +8.1459472e+01 </wgt>
<wgt id='1240'> +8.3588252e+01 </wgt>
<wgt id='1241'> +8.2061639e+01 </wgt>
<wgt id='1242'> +8.2693382e+01 </wgt>
<wgt id='1243'> +8.1800034e+01 </wgt>
<wgt id='1244'> +8.2418722e+01 </wgt>
<wgt id='1245'> +8.3203932e+01 </wgt>
<wgt id='1246'> +8.1702781e+01 </wgt>
<wgt id='1247'> +8.2101189e+01 </wgt>
<wgt id='1248'> +8.2750302e+01 </wgt>
<wgt id='1249'> +8.2171715e+01 </wgt>
<wgt id='1250'> +8.2313018e+01 </wgt>
<wgt id='1251'> +8.2728062e+01 </wgt>
<wgt id='1252'> +8.2402730e+01 </wgt>
<wgt id='1253'> +8.2222952e+01 </wgt>
<wgt id='1254'> +8.2423575e+01 </wgt>
<wgt id='1255'> +8.2519188e+01 </wgt>
<wgt id='1256'> +8.2347803e+01 </wgt>
<wgt id='1257'> +8.2552367e+01 </wgt>
<wgt id='1258'> +8.1822917e+01 </wgt>
<wgt id='1259'> +8.2342070e+01 </wgt>
<wgt id='1260'> +8.2332916e+01 </wgt>
<wgt id='1261'> +8.2228222e+01 </wgt>
<wgt id='1262'> +8.2692711e+01 </wgt>
<wgt id='1263'> +8.2684016e+01 </wgt>
<wgt id='1264'> +8.2325613e+01 </wgt>
<wgt id='1265'> +8.2286151e+01 </wgt>
<wgt id='1266'> +8.2600122e+01 </wgt>
<wgt id='1267'> +8.2206566e+01 </wgt>
<wgt id='1268'> +8.1906760e+01 </wgt>
<wgt id='1269'> +8.2199687e+01 </wgt>
<wgt id='1270'> +8.2290095e+01 </wgt>
<wgt id='1271'> +8.2494886e+01 </wgt>
<wgt id='1272'> +8.2496339e+01 </wgt>
<wgt id='1273'> +8.2294062e+01 </wgt>
<wgt id='1274'> +8.2487901e+01 </wgt>
<wgt id='1275'> +8.2425365e+01 </wgt>
<wgt id='1276'> +8.2193776e+01 </wgt>
<wgt id='1277'> +8.2508889e+01 </wgt>
<wgt id='1278'> +8.2685796e+01 </wgt>
<wgt id='1279'> +8.2478722e+01 </wgt>
<wgt id='1280'> +8.2208112e+01 </wgt>
<wgt id='1281'> +8.2288288e+01 </wgt>
<wgt id='1282'> +8.2340868e+01 </wgt>
<wgt id='1283'> +8.2358854e+01 </wgt>
<wgt id='1284'> +8.2223857e+01 </wgt>
<wgt id='1285'> +8.2303905e+01 </wgt>
<wgt id='1286'> +8.2309472e+01 </wgt>
<wgt id='1287'> +8.2374025e+01 </wgt>
<wgt id='1288'> +8.2524706e+01 </wgt>
<wgt id='1289'> +8.2443581e+01 </wgt>
<wgt id='1290'> +8.2436352e+01 </wgt>
<wgt id='1291'> +8.2177740e+01 </wgt>
<wgt id='1292'> +8.2261241e+01 </wgt>
<wgt id='1293'> +8.2465963e+01 </wgt>
<wgt id='1294'> +8.2343113e+01 </wgt>
<wgt id='1295'> +8.2307245e+01 </wgt>
<wgt id='1296'> +8.2380116e+01 </wgt>
<wgt id='1297'> +8.2245293e+01 </wgt>
<wgt id='1298'> +8.2439758e+01 </wgt>
<wgt id='1299'> +8.2450594e+01 </wgt>
<wgt id='1300'> +8.2340879e+01 </wgt>
<wgt id='1301'> +8.2415479e+01 </wgt>
<wgt id='1302'> +8.2317654e+01 </wgt>
<wgt id='1303'> +8.2332361e+01 </wgt>
<wgt id='1304'> +8.2371775e+01 </wgt>
<wgt id='1305'> +8.2417424e+01 </wgt>
<wgt id='1306'> +8.2334062e+01 </wgt>
<wgt id='1307'> +8.2216723e+01 </wgt>
<wgt id='1308'> +8.2350546e+01 </wgt>
<wgt id='1309'> +8.2272685e+01 </wgt>
<wgt id='1310'> +8.2427327e+01 </wgt>
<wgt id='1311'> +8.2340950e+01 </wgt>
<wgt id='1312'> +8.2377776e+01 </wgt>
<wgt id='1313'> +8.2312293e+01 </wgt>
<wgt id='1314'> +8.2379461e+01 </wgt>
<wgt id='1315'> +8.2352012e+01 </wgt>
<wgt id='1316'> +8.2458173e+01 </wgt>
<wgt id='1317'> +7.8627355e+01 </wgt>
<wgt id='1318'> +8.6130610e+01 </wgt>
<wgt id='1319'> +8.7879522e+01 </wgt>
<wgt id='1320'> +7.5822771e+01 </wgt>
<wgt id='1321'> +7.8432454e+01 </wgt>
<wgt id='1322'> +7.3340617e+01 </wgt>
<wgt id='1323'> +7.6416747e+01 </wgt>
<wgt id='1324'> +7.6587206e+01 </wgt>
<wgt id='1325'> +7.8591922e+01 </wgt>
<wgt id='1326'> +7.4491170e+01 </wgt>
<wgt id='1327'> +7.7679544e+01 </wgt>
<wgt id='1328'> +7.6241229e+01 </wgt>
<wgt id='1329'> +7.6058147e+01 </wgt>
<wgt id='1330'> +7.4748924e+01 </wgt>
<wgt id='1331'> +7.4099065e+01 </wgt>
<wgt id='1332'> +7.7569152e+01 </wgt>
<wgt id='1333'> +7.3954089e+01 </wgt>
<wgt id='1334'> +7.6012076e+01 </wgt>
<wgt id='1335'> +7.7660853e+01 </wgt>
<wgt id='1336'> +7.2937001e+01 </wgt>
<wgt id='1337'> +7.9984069e+01 </wgt>
<wgt id='1338'> +7.1312429e+01 </wgt>
<wgt id='1339'> +7.5917731e+01 </wgt>
<wgt id='1340'> +7.5634826e+01 </wgt>
<wgt id='1341'> +7.6083128e+01 </wgt>
<wgt id='1342'> +7.5175283e+01 </wgt>
<wgt id='1343'> +7.9064571e+01 </wgt>
<wgt id='1344'> +7.2581376e+01 </wgt>
<wgt id='1345'> +7.7161656e+01 </wgt>
<wgt id='1346'> +7.4804364e+01 </wgt>
<wgt id='1347'> +7.4701591e+01 </wgt>
<wgt id='1348'> +7.7213275e+01 </wgt>
<wgt id='1349'> +7.5275613e+01 </wgt>
<wgt id='1350'> +7.5999713e+01 </wgt>
<wgt id='1351'> +7.5696694e+01 </wgt>
<wgt id='1352'> +7.5959855e+01 </wgt>
<wgt id='1353'> +7.5112176e+01 </wgt>
<wgt id='1354'> +7.7332396e+01 </wgt>
<wgt id='1355'> +7.7614493e+01 </wgt>
<wgt id='1356'> +7.4244256e+01 </wgt>
<wgt id='1357'> +7.5838388e+01 </wgt>
<wgt id='1358'> +7.5117932e+01 </wgt>
<wgt id='1359'> +7.4652093e+01 </wgt>
<wgt id='1360'> +7.5902517e+01 </wgt>
<wgt id='1361'> +7.5235986e+01 </wgt>
<wgt id='1362'> +7.6968539e+01 </wgt>
<wgt id='1363'> +7.5736389e+01 </wgt>
<wgt id='1364'> +7.5473656e+01 </wgt>
<wgt id='1365'> +7.5747671e+01 </wgt>
<wgt id='1366'> +7.4909068e+01 </wgt>
<wgt id='1367'> +7.4161011e+01 </wgt>
<wgt id='1368'> +7.6314350e+01 </wgt>
<wgt id='1369'> +7.4758157e+01 </wgt>
<wgt id='1370'> +7.6814755e+01 </wgt>
<wgt id='1371'> +7.4330007e+01 </wgt>
<wgt id='1372'> +7.4316698e+01 </wgt>
<wgt id='1373'> +7.4934475e+01 </wgt>
<wgt id='1374'> +7.4671097e+01 </wgt>
<wgt id='1375'> +7.4944260e+01 </wgt>
<wgt id='1376'> +7.7496373e+01 </wgt>
<wgt id='1377'> +7.1535967e+01 </wgt>
<wgt id='1378'> +8.0246482e+01 </wgt>
<wgt id='1379'> +8.0710944e+01 </wgt>
<wgt id='1380'> +7.5823134e+01 </wgt>
<wgt id='1381'> +8.6033699e+01 </wgt>
<wgt id='1382'> +6.3394703e+01 </wgt>
<wgt id='1383'> +7.3302661e+01 </wgt>
<wgt id='1384'> +8.3285717e+01 </wgt>
<wgt id='1385'> +7.5527718e+01 </wgt>
<wgt id='1386'> +7.5736860e+01 </wgt>
<wgt id='1387'> +7.5293758e+01 </wgt>
<wgt id='1388'> +7.4983640e+01 </wgt>
<wgt id='1389'> +7.6456492e+01 </wgt>
<wgt id='1390'> +7.6287552e+01 </wgt>
<wgt id='1391'> +7.4632142e+01 </wgt>
<wgt id='1392'> +7.5233054e+01 </wgt>
<wgt id='1393'> +7.5739324e+01 </wgt>
<wgt id='1394'> +7.5423469e+01 </wgt>
<wgt id='1395'> +7.5655111e+01 </wgt>
<wgt id='1396'> +7.5792036e+01 </wgt>
<wgt id='1397'> +7.5376123e+01 </wgt>
<wgt id='1398'> +7.4529824e+01 </wgt>
<wgt id='1399'> +7.6258437e+01 </wgt>
<wgt id='1400'> +7.5352626e+01 </wgt>
<wgt id='1401'> +7.5644809e+01 </wgt>
<wgt id='1402'> +7.5811031e+01 </wgt>
<wgt id='1403'> +7.5395539e+01 </wgt>
<wgt id='1404'> +7.2908480e+01 </wgt>
<wgt id='1405'> +7.6869127e+01 </wgt>
<wgt id='1406'> +7.4830616e+01 </wgt>
<wgt id='1407'> +7.6758416e+01 </wgt>
<wgt id='1408'> +7.4701039e+01 </wgt>
<wgt id='1409'> +7.7205970e+01 </wgt>
<wgt id='1410'> +7.5331573e+01 </wgt>
<wgt id='1411'> +7.5924989e+01 </wgt>
<wgt id='1412'> +7.6192784e+01 </wgt>
<wgt id='1413'> +7.4475037e+01 </wgt>
<wgt id='1414'> +7.5325941e+01 </wgt>
<wgt id='1415'> +7.5701534e+01 </wgt>
<wgt id='1416'> +7.4385302e+01 </wgt>
<wgt id='1417'> +7.6191624e+01 </wgt>
<wgt id='1418'> +7.5044506e+01 </wgt>
<wgt id='1419'> +7.6467668e+01 </wgt>
<wgt id='1420'> +7.5171268e+01 </wgt>
<wgt id='1421'> +7.6019361e+01 </wgt>
<wgt id='1422'> +7.6224770e+01 </wgt>
<wgt id='1423'> +7.4763690e+01 </wgt>
<wgt id='1424'> +7.5741045e+01 </wgt>
<wgt id='1425'> +7.5063012e+01 </wgt>
<wgt id='1426'> +7.6878134e+01 </wgt>
<wgt id='1427'> +7.6106408e+01 </wgt>
<wgt id='1428'> +7.5141762e+01 </wgt>
<wgt id='1429'> +7.4379038e+01 </wgt>
<wgt id='1430'> +7.6590086e+01 </wgt>
<wgt id='1431'> +7.6775046e+01 </wgt>
<wgt id='1432'> +7.6609608e+01 </wgt>
<wgt id='1433'> +7.7145138e+01 </wgt>
<wgt id='1434'> +7.6274866e+01 </wgt>
<wgt id='1435'> +7.5132098e+01 </wgt>
<wgt id='1436'> +5.5849482e+01 </wgt>
<wgt id='1437'> +5.5841475e+01 </wgt>
<wgt id='1438'> +5.5974052e+01 </wgt>
<wgt id='1439'> +5.5858571e+01 </wgt>
<wgt id='1440'> +5.5441885e+01 </wgt>
<wgt id='1441'> +5.6473367e+01 </wgt>
<wgt id='1442'> +5.5544726e+01 </wgt>
<wgt id='1443'> +5.5744100e+01 </wgt>
<wgt id='1444'> +5.5831106e+01 </wgt>
<wgt id='1445'> +5.4865399e+01 </wgt>
<wgt id='1446'> +5.6392209e+01 </wgt>
<wgt id='1447'> +5.5679369e+01 </wgt>
<wgt id='1448'> +5.5643923e+01 </wgt>
<wgt id='1449'> +5.5990916e+01 </wgt>
<wgt id='1450'> +5.5884777e+01 </wgt>
<wgt id='1451'> +5.6020503e+01 </wgt>
<wgt id='1452'> +5.5713789e+01 </wgt>
<wgt id='1453'> +5.6233664e+01 </wgt>
<wgt id='1454'> +5.6081108e+01 </wgt>
<wgt id='1455'> +5.6104950e+01 </wgt>
<wgt id='1456'> +5.6007971e+01 </wgt>
<wgt id='1457'> +5.6543899e+01 </wgt>
<wgt id='1458'> +5.6429631e+01 </wgt>
<wgt id='1459'> +5.5725736e+01 </wgt>
<wgt id='1460'> +5.5669924e+01 </wgt>
<wgt id='1461'> +5.5748201e+01 </wgt>
<wgt id='1462'> +5.4830801e+01 </wgt>
<wgt id='1463'> +5.6695978e+01 </wgt>
<wgt id='1464'> +5.5067578e+01 </wgt>
<wgt id='1465'> +7.3188820e+01 </wgt>
<wgt id='1466'> +7.4870233e+01 </wgt>
<wgt id='1467'> +7.4651455e+01 </wgt>
<wgt id='1468'> +7.4192113e+01 </wgt>
<wgt id='1469'> +7.5946073e+01 </wgt>
<wgt id='1470'> +7.4443099e+01 </wgt>
<wgt id='1471'> +7.5016470e+01 </wgt>
<wgt id='1472'> +7.3984700e+01 </wgt>
<wgt id='1473'> +7.5027831e+01 </wgt>
<wgt id='1474'> +7.4619463e+01 </wgt>
<wgt id='1475'> +7.5291199e+01 </wgt>
<wgt id='1476'> +7.5127776e+01 </wgt>
<wgt id='1477'> +7.3173928e+01 </wgt>
<wgt id='1478'> +7.4535862e+01 </wgt>
<wgt id='1479'> +7.4149538e+01 </wgt>
<wgt id='1480'> +7.4435695e+01 </wgt>
<wgt id='1481'> +7.4474299e+01 </wgt>
<wgt id='1482'> +7.3956638e+01 </wgt>
<wgt id='1483'> +7.5105225e+01 </wgt>
<wgt id='1484'> +7.6751127e+01 </wgt>
<wgt id='1485'> +7.4340193e+01 </wgt>
<wgt id='1486'> +7.5611229e+01 </wgt>
<wgt id='1487'> +7.5583039e+01 </wgt>
<wgt id='1488'> +7.5399740e+01 </wgt>
<wgt id='1489'> +7.5255064e+01 </wgt>
<wgt id='1490'> +7.4576465e+01 </wgt>
<wgt id='1491'> +7.5499402e+01 </wgt>
<wgt id='1492'> +7.5053471e+01 </wgt>
<wgt id='1493'> +7.4665213e+01 </wgt>
<wgt id='1494'> +7.3997681e+01 </wgt>
<wgt id='1495'> +7.4814305e+01 </wgt>
<wgt id='1496'> +7.4405927e+01 </wgt>
<wgt id='1497'> +7.4818609e+01 </wgt>
<wgt id='1498'> +7.5329671e+01 </wgt>
<wgt id='1499'> +7.4421387e+01 </wgt>
<wgt id='1500'> +7.5027033e+01 </wgt>
<wgt id='1501'> +7.4778219e+01 </wgt>
<wgt id='1502'> +7.4939867e+01 </wgt>
<wgt id='1503'> +7.5097641e+01 </wgt>
<wgt id='1504'> +7.4501507e+01 </wgt>
<wgt id='1505'> +7.4768071e+01 </wgt>
<wgt id='1506'> +7.5000669e+01 </wgt>
<wgt id='1507'> +7.4755338e+01 </wgt>
<wgt id='1508'> +7.4885198e+01 </wgt>
<wgt id='1509'> +7.4848420e+01 </wgt>
<wgt id='1510'> +7.4985611e+01 </wgt>
<wgt id='1511'> +7.4884477e+01 </wgt>
<wgt id='1512'> +7.4813799e+01 </wgt>
<wgt id='1513'> +7.4884600e+01 </wgt>
<wgt id='1514'> +7.4898424e+01 </wgt>
<wgt id='1515'> +7.4879363e+01 </wgt>
<wgt id='1516'> +7.4835015e+01 </wgt>
<wgt id='1517'> +7.4966369e+01 </wgt>
<wgt id='1518'> +7.4744220e+01 </wgt>
<wgt id='1519'> +7.4757664e+01 </wgt>
<wgt id='1520'> +7.4766483e+01 </wgt>
<wgt id='1521'> +7.4904602e+01 </wgt>
<wgt id='1522'> +7.4704377e+01 </wgt>
<wgt id='1523'> +7.4829165e+01 </wgt>
<wgt id='1524'> +7.5009965e+01 </wgt>
<wgt id='1525'> +7.4806607e+01 </wgt>
<wgt id='1526'> +7.4798789e+01 </wgt>
<wgt id='1527'> +7.4900631e+01 </wgt>
<wgt id='1528'> +7.4956127e+01 </wgt>
<wgt id='1529'> +7.4819142e+01 </wgt>
<wgt id='1530'> +7.4878900e+01 </wgt>
<wgt id='1531'> +7.4835595e+01 </wgt>
<wgt id='1532'> +7.4862872e+01 </wgt>
<wgt id='1533'> +7.4911144e+01 </wgt>
<wgt id='1534'> +7.4881454e+01 </wgt>
<wgt id='1535'> +7.4947107e+01 </wgt>
<wgt id='1536'> +7.4904766e+01 </wgt>
<wgt id='1537'> +7.4847057e+01 </wgt>
<wgt id='1538'> +7.4901335e+01 </wgt>
<wgt id='1539'> +7.4956108e+01 </wgt>
<wgt id='1540'> +7.4870867e+01 </wgt>
<wgt id='1541'> +7.4887426e+01 </wgt>
<wgt id='1542'> +7.4914577e+01 </wgt>
<wgt id='1543'> +7.4881879e+01 </wgt>
<wgt id='1544'> +7.4872298e+01 </wgt>
<wgt id='1545'> +7.4918289e+01 </wgt>
<wgt id='1546'> +7.4906921e+01 </wgt>
<wgt id='1547'> +7.4852478e+01 </wgt>
<wgt id='1548'> +7.4909259e+01 </wgt>
<wgt id='1549'> +7.4926933e+01 </wgt>
<wgt id='1550'> +7.4936124e+01 </wgt>
<wgt id='1551'> +7.4945625e+01 </wgt>
<wgt id='1552'> +7.4861685e+01 </wgt>
<wgt id='1553'> +7.4939371e+01 </wgt>
<wgt id='1554'> +7.4880045e+01 </wgt>
<wgt id='1555'> +7.4838034e+01 </wgt>
<wgt id='1556'> +7.4802581e+01 </wgt>
<wgt id='1557'> +7.4821366e+01 </wgt>
<wgt id='1558'> +7.4924098e+01 </wgt>
<wgt id='1559'> +7.4871944e+01 </wgt>
<wgt id='1560'> +7.4872560e+01 </wgt>
<wgt id='1561'> +7.4823989e+01 </wgt>
<wgt id='1562'> +7.4877827e+01 </wgt>
<wgt id='1563'> +7.4820843e+01 </wgt>
<wgt id='1564'> +7.4877951e+01 </wgt>
<wgt id='1565'> +7.4885644e+01 </wgt>
<wgt id='1566'> +7.4878093e+01 </wgt>
<wgt id='1567'> +7.1841609e+01 </wgt>
<wgt id='1568'> +7.8014458e+01 </wgt>
<wgt id='1569'> +8.2189267e+01 </wgt>
<wgt id='1570'> +8.2388848e+01 </wgt>
<wgt id='1571'> +8.2100327e+01 </wgt>
<wgt id='1572'> +8.2254754e+01 </wgt>
<wgt id='1573'> +8.2761925e+01 </wgt>
<wgt id='1574'> +8.3268658e+01 </wgt>
<wgt id='1575'> +8.2562764e+01 </wgt>
<wgt id='1576'> +8.2326529e+01 </wgt>
<wgt id='1577'> +8.1979023e+01 </wgt>
<wgt id='1578'> +8.1850013e+01 </wgt>
<wgt id='1579'> +8.1892930e+01 </wgt>
<wgt id='1580'> +8.3453687e+01 </wgt>
<wgt id='1581'> +8.2706610e+01 </wgt>
<wgt id='1582'> +8.2687421e+01 </wgt>
<wgt id='1583'> +8.1825822e+01 </wgt>
<wgt id='1584'> +8.4781965e+01 </wgt>
<wgt id='1585'> +8.1720102e+01 </wgt>
<wgt id='1586'> +8.2066563e+01 </wgt>
<wgt id='1587'> +8.2610989e+01 </wgt>
<wgt id='1588'> +8.0886403e+01 </wgt>
<wgt id='1589'> +8.2145014e+01 </wgt>
<wgt id='1590'> +8.2435573e+01 </wgt>
<wgt id='1591'> +8.0581543e+01 </wgt>
<wgt id='1592'> +8.2644643e+01 </wgt>
<wgt id='1593'> +8.1519858e+01 </wgt>
<wgt id='1594'> +8.1835376e+01 </wgt>
<wgt id='1595'> +8.1868265e+01 </wgt>
<wgt id='1596'> +8.2069985e+01 </wgt>
<wgt id='1597'> +8.2552575e+01 </wgt>
<wgt id='1598'> +8.1867533e+01 </wgt>
<wgt id='1599'> +8.1884643e+01 </wgt>
<wgt id='1600'> +8.2395002e+01 </wgt>
<wgt id='1601'> +8.2043220e+01 </wgt>
<wgt id='1602'> +8.2807649e+01 </wgt>
<wgt id='1603'> +8.2080522e+01 </wgt>
<wgt id='1604'> +8.3010034e+01 </wgt>
<wgt id='1605'> +8.1766778e+01 </wgt>
<wgt id='1606'> +8.2510659e+01 </wgt>
<wgt id='1607'> +8.2347371e+01 </wgt>
<wgt id='1608'> +8.1836396e+01 </wgt>
<wgt id='1609'> +8.2214573e+01 </wgt>
<wgt id='1610'> +8.2183618e+01 </wgt>
<wgt id='1611'> +8.2242821e+01 </wgt>
<wgt id='1612'> +8.2070179e+01 </wgt>
<wgt id='1613'> +8.2273020e+01 </wgt>
<wgt id='1614'> +8.2151312e+01 </wgt>
<wgt id='1615'> +8.2224853e+01 </wgt>
<wgt id='1616'> +8.2263548e+01 </wgt>
<wgt id='1617'> +8.2195990e+01 </wgt>
<wgt id='1618'> +8.2257178e+01 </wgt>
<wgt id='1619'> +8.2005060e+01 </wgt>
<wgt id='1620'> +8.2137119e+01 </wgt>
<wgt id='1621'> +8.2372746e+01 </wgt>
<wgt id='1622'> +8.2173047e+01 </wgt>
<wgt id='1623'> +8.2100866e+01 </wgt>
<wgt id='1624'> +8.2108928e+01 </wgt>
<wgt id='1625'> +8.2388212e+01 </wgt>
<wgt id='1626'> +8.2267683e+01 </wgt>
<wgt id='1627'> +8.2167721e+01 </wgt>
<wgt id='1628'> +8.2120528e+01 </wgt>
<wgt id='1629'> +8.2288052e+01 </wgt>
<wgt id='1630'> +8.2141132e+01 </wgt>
<wgt id='1631'> +8.2160574e+01 </wgt>
<wgt id='1632'> +8.2254352e+01 </wgt>
<wgt id='1633'> +8.2124514e+01 </wgt>
<wgt id='1634'> +8.2205199e+01 </wgt>
<wgt id='1635'> +8.2267329e+01 </wgt>
<wgt id='1636'> +8.2251434e+01 </wgt>
<wgt id='1637'> +8.2304122e+01 </wgt>
<wgt id='1638'> +8.2233695e+01 </wgt>
<wgt id='1639'> +8.2212557e+01 </wgt>
<wgt id='1640'> +8.2135407e+01 </wgt>
<wgt id='1641'> +8.2214213e+01 </wgt>
<wgt id='1642'> +8.2182444e+01 </wgt>
<wgt id='1643'> +8.2247852e+01 </wgt>
<wgt id='1644'> +8.2136575e+01 </wgt>
<wgt id='1645'> +8.2206961e+01 </wgt>
<wgt id='1646'> +8.2148743e+01 </wgt>
<wgt id='1647'> +8.2226484e+01 </wgt>
<wgt id='1648'> +8.2226598e+01 </wgt>
<wgt id='1649'> +8.2238736e+01 </wgt>
<wgt id='1650'> +8.2243089e+01 </wgt>
<wgt id='1651'> +8.2199721e+01 </wgt>
<wgt id='1652'> +8.2215911e+01 </wgt>
<wgt id='1653'> +8.2209027e+01 </wgt>
<wgt id='1654'> +8.2113898e+01 </wgt>
<wgt id='1655'> +8.2221150e+01 </wgt>
<wgt id='1656'> +8.2136504e+01 </wgt>
<wgt id='1657'> +8.2188112e+01 </wgt>
<wgt id='1658'> +8.2236436e+01 </wgt>
<wgt id='1659'> +8.2153412e+01 </wgt>
<wgt id='1660'> +8.2204790e+01 </wgt>
<wgt id='1661'> +8.2235412e+01 </wgt>
<wgt id='1662'> +8.2173212e+01 </wgt>
<wgt id='1663'> +8.2217395e+01 </wgt>
<wgt id='1664'> +8.2139226e+01 </wgt>
<wgt id='1665'> +8.2134847e+01 </wgt>
<wgt id='1666'> +8.2204653e+01 </wgt>
<wgt id='1667'> +8.2227235e+01 </wgt>
<wgt id='1668'> +8.2181681e+01 </wgt>
<wgt id='1669'> +8.2162614e+01 </wgt>
<wgt id='1670'> +7.8350691e+01 </wgt>
<wgt id='1671'> +8.5814558e+01 </wgt>
<wgt id='1672'> +7.4938516e+01 </wgt>
<wgt id='1673'> +7.4991380e+01 </wgt>
<wgt id='1674'> +7.3202637e+01 </wgt>
<wgt id='1675'> +7.4846121e+01 </wgt>
<wgt id='1676'> +7.5623761e+01 </wgt>
<wgt id='1677'> +7.4837025e+01 </wgt>
<wgt id='1678'> +7.5656104e+01 </wgt>
<wgt id='1679'> +7.5129800e+01 </wgt>
<wgt id='1680'> +7.5224358e+01 </wgt>
<wgt id='1681'> +7.5705938e+01 </wgt>
<wgt id='1682'> +7.5119316e+01 </wgt>
<wgt id='1683'> +7.4104502e+01 </wgt>
<wgt id='1684'> +7.4941875e+01 </wgt>
<wgt id='1685'> +7.5046731e+01 </wgt>
<wgt id='1686'> +7.2197207e+01 </wgt>
<wgt id='1687'> +7.5181413e+01 </wgt>
<wgt id='1688'> +7.5229143e+01 </wgt>
<wgt id='1689'> +7.4624952e+01 </wgt>
<wgt id='1690'> +7.4920569e+01 </wgt>
<wgt id='1691'> +7.5213733e+01 </wgt>
<wgt id='1692'> +7.5510711e+01 </wgt>
<wgt id='1693'> +7.4992753e+01 </wgt>
<wgt id='1694'> +7.4878136e+01 </wgt>
<wgt id='1695'> +7.4973123e+01 </wgt>
<wgt id='1696'> +7.4698519e+01 </wgt>
<wgt id='1697'> +7.5138413e+01 </wgt>
<wgt id='1698'> +7.4506790e+01 </wgt>
<wgt id='1699'> +7.5206056e+01 </wgt>
<wgt id='1700'> +7.4871756e+01 </wgt>
<wgt id='1701'> +7.4810649e+01 </wgt>
<wgt id='1702'> +7.4965834e+01 </wgt>
<wgt id='1703'> +7.1841609e+01 </wgt>
<wgt id='1704'> +7.8014458e+01 </wgt>
<wgt id='1705'> +8.2200113e+01 </wgt>
<wgt id='1706'> +8.2375261e+01 </wgt>
<wgt id='1707'> +8.5746112e+01 </wgt>
<wgt id='1708'> +8.1964679e+01 </wgt>
<wgt id='1709'> +8.1409110e+01 </wgt>
<wgt id='1710'> +8.1936074e+01 </wgt>
<wgt id='1711'> +8.2176150e+01 </wgt>
<wgt id='1712'> +8.2230437e+01 </wgt>
<wgt id='1713'> +8.2271673e+01 </wgt>
<wgt id='1714'> +8.1678450e+01 </wgt>
<wgt id='1715'> +8.2139917e+01 </wgt>
<wgt id='1716'> +8.3215672e+01 </wgt>
<wgt id='1717'> +8.2205197e+01 </wgt>
<wgt id='1718'> +8.2353284e+01 </wgt>
<wgt id='1719'> +8.2216506e+01 </wgt>
<wgt id='1720'> +8.2059758e+01 </wgt>
<wgt id='1721'> +8.2149641e+01 </wgt>
<wgt id='1722'> +8.1963010e+01 </wgt>
<wgt id='1723'> +8.2247907e+01 </wgt>
<wgt id='1724'> +8.2470402e+01 </wgt>
<wgt id='1725'> +8.1501547e+01 </wgt>
<wgt id='1726'> +8.1434278e+01 </wgt>
<wgt id='1727'> +8.2163662e+01 </wgt>
<wgt id='1728'> +8.2211847e+01 </wgt>
<wgt id='1729'> +8.2220490e+01 </wgt>
<wgt id='1730'> +8.2375925e+01 </wgt>
<wgt id='1731'> +8.2407535e+01 </wgt>
<wgt id='1732'> +8.2088101e+01 </wgt>
<wgt id='1733'> +8.2262846e+01 </wgt>
<wgt id='1734'> +8.2121690e+01 </wgt>
<wgt id='1735'> +8.2355632e+01 </wgt>
<wgt id='1736'> +7.8350691e+01 </wgt>
<wgt id='1737'> +8.5814558e+01 </wgt>
<wgt id='1738'> +7.7227773e+01 </wgt>
<wgt id='1739'> +7.7498147e+01 </wgt>
<wgt id='1740'> +7.6959360e+01 </wgt>
<wgt id='1741'> +7.7111065e+01 </wgt>
<wgt id='1742'> +7.7344285e+01 </wgt>
<wgt id='1743'> +7.7354769e+01 </wgt>
<wgt id='1744'> +7.7100777e+01 </wgt>
<wgt id='1745'> +7.6887932e+01 </wgt>
<wgt id='1746'> +7.7551913e+01 </wgt>
<wgt id='1747'> +7.7849220e+01 </wgt>
<wgt id='1748'> +7.6594067e+01 </wgt>
<wgt id='1749'> +7.7515039e+01 </wgt>
<wgt id='1750'> +7.6918446e+01 </wgt>
<wgt id='1751'> +7.7219565e+01 </wgt>
<wgt id='1752'> +7.7232289e+01 </wgt>
<wgt id='1753'> +7.7138681e+01 </wgt>
<wgt id='1754'> +7.7304900e+01 </wgt>
<wgt id='1755'> +7.6996077e+01 </wgt>
<wgt id='1756'> +7.7356656e+01 </wgt>
<wgt id='1757'> +7.6931741e+01 </wgt>
<wgt id='1758'> +7.7501199e+01 </wgt>
<wgt id='1759'> +7.6736632e+01 </wgt>
<wgt id='1760'> +7.7613696e+01 </wgt>
<wgt id='1761'> +7.7492533e+01 </wgt>
<wgt id='1762'> +7.6604892e+01 </wgt>
<wgt id='1763'> +7.7444819e+01 </wgt>
<wgt id='1764'> +7.7079514e+01 </wgt>
<wgt id='1765'> +7.7523681e+01 </wgt>
<wgt id='1766'> +7.6947282e+01 </wgt>
<wgt id='1767'> +7.7227773e+01 </wgt>
<wgt id='1768'> +8.0882738e+01 </wgt>
<wgt id='1769'> +7.3008529e+01 </wgt>
<wgt id='1770'> +8.3552291e+01 </wgt>
<wgt id='1771'> +7.7955355e+01 </wgt>
<wgt id='1772'> +7.7475078e+01 </wgt>
<wgt id='1773'> +7.7531252e+01 </wgt>
<wgt id='1774'> +7.7231976e+01 </wgt>
<wgt id='1775'> +7.7211606e+01 </wgt>
<wgt id='1776'> +7.6212849e+01 </wgt>
<wgt id='1777'> +7.8171915e+01 </wgt>
<wgt id='1778'> +7.6527359e+01 </wgt>
<wgt id='1779'> +7.8712748e+01 </wgt>
<wgt id='1780'> +7.3661816e+01 </wgt>
<wgt id='1781'> +8.3851912e+01 </wgt>
<wgt id='1782'> +8.4153555e+01 </wgt>
<wgt id='1783'> +8.3558836e+01 </wgt>
<wgt id='1784'> +8.3648349e+01 </wgt>
<wgt id='1785'> +8.4062687e+01 </wgt>
<wgt id='1786'> +8.3893577e+01 </wgt>
<wgt id='1787'> +8.3817142e+01 </wgt>
<wgt id='1788'> +8.3290185e+01 </wgt>
<wgt id='1789'> +8.4395447e+01 </wgt>
<wgt id='1790'> +8.4375256e+01 </wgt>
<wgt id='1791'> +8.3328595e+01 </wgt>
<wgt id='1792'> +8.4212569e+01 </wgt>
<wgt id='1793'> +8.3491426e+01 </wgt>
<wgt id='1794'> +8.3623514e+01 </wgt>
<wgt id='1795'> +8.4089305e+01 </wgt>
<wgt id='1796'> +8.3795520e+01 </wgt>
<wgt id='1797'> +8.3956506e+01 </wgt>
<wgt id='1798'> +8.3973243e+01 </wgt>
<wgt id='1799'> +8.3715436e+01 </wgt>
<wgt id='1800'> +8.3764467e+01 </wgt>
<wgt id='1801'> +8.3907780e+01 </wgt>
<wgt id='1802'> +8.3881946e+01 </wgt>
<wgt id='1803'> +8.3719668e+01 </wgt>
<wgt id='1804'> +8.4659453e+01 </wgt>
<wgt id='1805'> +8.3057177e+01 </wgt>
<wgt id='1806'> +8.5001180e+01 </wgt>
<wgt id='1807'> +8.2595563e+01 </wgt>
<wgt id='1808'> +8.4999142e+01 </wgt>
<wgt id='1809'> +8.2801261e+01 </wgt>
<wgt id='1810'> +8.3715843e+01 </wgt>
<wgt id='1811'> +8.8165280e+01 </wgt>
<wgt id='1812'> +7.8665421e+01 </wgt>
<wgt id='1813'> +9.1004802e+01 </wgt>
<wgt id='1814'> +8.3971371e+01 </wgt>
<wgt id='1815'> +8.5886919e+01 </wgt>
<wgt id='1816'> +8.2874179e+01 </wgt>
<wgt id='1817'> +8.3618739e+01 </wgt>
<wgt id='1818'> +8.3485074e+01 </wgt>
<wgt id='1819'> +8.2924459e+01 </wgt>
<wgt id='1820'> +8.6553540e+01 </wgt>
<wgt id='1821'> +8.3960407e+01 </wgt>
<wgt id='1822'> +8.3690716e+01 </wgt>
<wgt id='1823'> +8.2490502e+01 </wgt>
<wgt id='1824'> +7.5004881e+01 </wgt>
<wgt id='1825'> +7.4965182e+01 </wgt>
<wgt id='1826'> +7.4925532e+01 </wgt>
<wgt id='1827'> +7.4885694e+01 </wgt>
<wgt id='1828'> +7.4846027e+01 </wgt>
<wgt id='1829'> +7.4806146e+01 </wgt>
<wgt id='1830'> +7.4766469e+01 </wgt>
<wgt id='1831'> +7.4726990e+01 </wgt>
<wgt id='1832'> +7.4687365e+01 </wgt>
<wgt id='1833'> +7.4647485e+01 </wgt>
<wgt id='1834'> +7.4607933e+01 </wgt>
<wgt id='1835'> +7.4568173e+01 </wgt>
<wgt id='1836'> +7.4528736e+01 </wgt>
<wgt id='1837'> +7.4488662e+01 </wgt>
<wgt id='1838'> +7.4449409e+01 </wgt>
<wgt id='1839'> +7.4409479e+01 </wgt>
<wgt id='1840'> +7.4370637e+01 </wgt>
<wgt id='1841'> +7.4330853e+01 </wgt>
<wgt id='1842'> +7.4291685e+01 </wgt>
<wgt id='1843'> +7.4251990e+01 </wgt>
<wgt id='1844'> +7.4212779e+01 </wgt>
<wgt id='1845'> +7.4172839e+01 </wgt>
<wgt id='1846'> +7.4133536e+01 </wgt>
<wgt id='1847'> +7.4093742e+01 </wgt>
<wgt id='1848'> +7.4054565e+01 </wgt>
<wgt id='1849'> +7.4014596e+01 </wgt>
<wgt id='1850'> +7.3975419e+01 </wgt>
<wgt id='1851'> +7.3935375e+01 </wgt>
<wgt id='1852'> +7.3896358e+01 </wgt>
<wgt id='1853'> +7.3856417e+01 </wgt>
<wgt id='1854'> +7.3817480e+01 </wgt>
<wgt id='1855'> +8.2115580e+01 </wgt>
<wgt id='1856'> +8.2294381e+01 </wgt>
<wgt id='1857'> +8.2023137e+01 </wgt>
<wgt id='1858'> +8.2179440e+01 </wgt>
<wgt id='1859'> +8.2680803e+01 </wgt>
<wgt id='1860'> +8.3190851e+01 </wgt>
<wgt id='1861'> +8.2502367e+01 </wgt>
<wgt id='1862'> +8.2268811e+01 </wgt>
<wgt id='1863'> +8.1907145e+01 </wgt>
<wgt id='1864'> +8.1777066e+01 </wgt>
<wgt id='1865'> +8.1813867e+01 </wgt>
<wgt id='1866'> +8.3399879e+01 </wgt>
<wgt id='1867'> +8.2641119e+01 </wgt>
<wgt id='1868'> +8.2619787e+01 </wgt>
<wgt id='1869'> +8.1750604e+01 </wgt>
<wgt id='1870'> +8.4680480e+01 </wgt>
<wgt id='1871'> +8.1667022e+01 </wgt>
<wgt id='1872'> +8.1984529e+01 </wgt>
<wgt id='1873'> +8.2531784e+01 </wgt>
<wgt id='1874'> +8.0826492e+01 </wgt>
<wgt id='1875'> +8.2085792e+01 </wgt>
<wgt id='1876'> +8.2355723e+01 </wgt>
<wgt id='1877'> +8.0503727e+01 </wgt>
<wgt id='1878'> +8.2578406e+01 </wgt>
<wgt id='1879'> +8.1438886e+01 </wgt>
<wgt id='1880'> +8.1746090e+01 </wgt>
<wgt id='1881'> +8.1780435e+01 </wgt>
<wgt id='1882'> +8.2013210e+01 </wgt>
<wgt id='1883'> +8.2483611e+01 </wgt>
<wgt id='1884'> +8.1785609e+01 </wgt>
<wgt id='1885'> +8.1803503e+01 </wgt>
<wgt id='1886'> +8.2337775e+01 </wgt>
<wgt id='1887'> +8.1963768e+01 </wgt>
<wgt id='1888'> +8.2726425e+01 </wgt>
<wgt id='1889'> +8.2007508e+01 </wgt>
<wgt id='1890'> +8.2929836e+01 </wgt>
<wgt id='1891'> +8.1694259e+01 </wgt>
<wgt id='1892'> +8.2435871e+01 </wgt>
<wgt id='1893'> +8.2271254e+01 </wgt>
<wgt id='1894'> +8.1756016e+01 </wgt>
<wgt id='1895'> +8.2141242e+01 </wgt>
<wgt id='1896'> +8.2106145e+01 </wgt>
<wgt id='1897'> +8.2168065e+01 </wgt>
<wgt id='1898'> +8.2005407e+01 </wgt>
<wgt id='1899'> +8.2197629e+01 </wgt>
<wgt id='1900'> +8.2076060e+01 </wgt>
<wgt id='1901'> +8.2156798e+01 </wgt>
<wgt id='1902'> +8.2186793e+01 </wgt>
<wgt id='1903'> +8.2124938e+01 </wgt>
<wgt id='1904'> +8.2184069e+01 </wgt>
<wgt id='1905'> +8.1933107e+01 </wgt>
<wgt id='1906'> +8.2061174e+01 </wgt>
<wgt id='1907'> +8.2298009e+01 </wgt>
<wgt id='1908'> +8.2100053e+01 </wgt>
<wgt id='1909'> +8.2029609e+01 </wgt>
<wgt id='1910'> +8.2037161e+01 </wgt>
<wgt id='1911'> +8.2309229e+01 </wgt>
<wgt id='1912'> +8.2193774e+01 </wgt>
<wgt id='1913'> +8.2098166e+01 </wgt>
<wgt id='1914'> +8.2049421e+01 </wgt>
<wgt id='1915'> +8.2216139e+01 </wgt>
<wgt id='1916'> +8.2068297e+01 </wgt>
<wgt id='1917'> +8.2087439e+01 </wgt>
<wgt id='1918'> +8.2177286e+01 </wgt>
<wgt id='1919'> +8.2055306e+01 </wgt>
<wgt id='1920'> +8.2130132e+01 </wgt>
<wgt id='1921'> +8.2193579e+01 </wgt>
<wgt id='1922'> +8.2175793e+01 </wgt>
<wgt id='1923'> +8.2231308e+01 </wgt>
<wgt id='1924'> +8.2156605e+01 </wgt>
<wgt id='1925'> +8.2137804e+01 </wgt>
<wgt id='1926'> +8.2063508e+01 </wgt>
<wgt id='1927'> +8.2138242e+01 </wgt>
<wgt id='1928'> +8.2107298e+01 </wgt>
<wgt id='1929'> +8.2175499e+01 </wgt>
<wgt id='1930'> +8.2064445e+01 </wgt>
<wgt id='1931'> +8.2136961e+01 </wgt>
<wgt id='1932'> +8.2075267e+01 </wgt>
<wgt id='1933'> +8.2154424e+01 </wgt>
<wgt id='1934'> +8.2152470e+01 </wgt>
<wgt id='1935'> +8.2161372e+01 </wgt>
<wgt id='1936'> +8.2171620e+01 </wgt>
<wgt id='1937'> +8.2127066e+01 </wgt>
<wgt id='1938'> +8.2142374e+01 </wgt>
<wgt id='1939'> +8.2134477e+01 </wgt>
<wgt id='1940'> +8.2040494e+01 </wgt>
<wgt id='1941'> +8.2149830e+01 </wgt>
<wgt id='1942'> +8.2061899e+01 </wgt>
<wgt id='1943'> +8.2111936e+01 </wgt>
<wgt id='1944'> +8.2160436e+01 </wgt>
<wgt id='1945'> +8.2078509e+01 </wgt>
<wgt id='1946'> +8.2128423e+01 </wgt>
<wgt id='1947'> +8.2160182e+01 </wgt>
<wgt id='1948'> +8.2100100e+01 </wgt>
<wgt id='1949'> +8.2141032e+01 </wgt>
<wgt id='1950'> +8.2066423e+01 </wgt>
<wgt id='1951'> +8.2062736e+01 </wgt>
<wgt id='1952'> +8.2130891e+01 </wgt>
<wgt id='1953'> +8.2151746e+01 </wgt>
<wgt id='1954'> +8.2110183e+01 </wgt>
<wgt id='1955'> +8.2090408e+01 </wgt>
<wgt id='1956'> +8.2115548e+01 </wgt>
<wgt id='1957'> +8.2115699e+01 </wgt>
<wgt id='1958'> +8.2115594e+01 </wgt>
<wgt id='1959'> +8.2115609e+01 </wgt>
<wgt id='1960'> +8.2115644e+01 </wgt>
<wgt id='1961'> +8.2115587e+01 </wgt>
<wgt id='1962'> +8.2115689e+01 </wgt>
</rwgt>
</event>
<event npLO=" -1 " npNLO=" 1 ">
 7      1 -1.5146096e+02 1.05701100e+01 7.54677110e-03 1.69010330e-01
       -4 -1    0    0    0  501 +0.0000000000e+00 +0.0000000000e+00 +9.1273110000e+01 9.1273110000e+01 0.0000000000e+00 0.0000e+00 9.0000e+00
        4 -1    0    0  502    0 +0.0000000000e+00 +0.0000000000e+00 -3.2511796000e+01 3.2511796000e+01 0.0000000000e+00 0.0000e+00 9.0000e+00
       23  2    1    2    0    0 -7.0507630000e+00 +7.8748944000e+00 +4.5017190000e+01 1.0644627000e+02 9.5877707000e+01 0.0000e+00 0.0000e+00
       13  1    3    3    0    0 +1.8108024000e+01 +7.6047039000e+00 +6.0753883000e+01 6.3849560000e+01 0.0000000000e+00 0.0000e+00 9.0000e+00
      -13  1    3    3    0    0 -1.4715206000e+01 -1.4477285000e+01 -3.9381305000e+00 2.1015183000e+01 0.0000000000e+00 0.0000e+00 9.0000e+00
       22  1    3    3    0    0 -1.0443581000e+01 +1.4747475000e+01 -1.1798562000e+01 2.1581531000e+01 0.0000000000e+00 0.0000e+00 9.0000e+00
       21  1    1    2  502  501 +7.0507630000e+00 -7.8748944000e+00 +1.3744124000e+01 1.7338632000e+01 0.0000000000e+00 0.0000e+00 9.0000e+00
#aMCatNLO 1  0  0  0  0 0.00000000E+00 0.00000000E+00 -9  7  0 0.00000000E+00 0.00000000E+00 0.00000000E+00 0.00000000E+00 0.00000000E+00
<rwgt>
<wgt id='1001'> -1.5146000e+02 </wgt>
<wgt id='1002'> -1.5146000e+02 </wgt>
<wgt id='1003'> -1.3613000e+02 </wgt>
<wgt id='1004'> -1.5150000e+02 </wgt>
<wgt id='1005'> -1.4897000e+02 </wgt>
<wgt id='1006'> -1.5010000e+02 </wgt>
<wgt id='1007'> -1.2679000e+02 </wgt>
<wgt id='1008'> -1.5241000e+02 </wgt>
<wgt id='1009'> -1.5413000e+02 </wgt>
<wgt id='1010'> -1.5056000e+02 </wgt>
<wgt id='1011'> -1.5111000e+02 </wgt>
<wgt id='1012'> -1.4395000e+02 </wgt>
<wgt id='1013'> -1.4586000e+02 </wgt>
<wgt id='1014'> -1.5538000e+02 </wgt>
<wgt id='1015'> -1.5454000e+02 </wgt>
<wgt id='1016'> -1.4446000e+02 </wgt>
<wgt id='1017'> -1.5015000e+02 </wgt>
<wgt id='1018'> -1.5541000e+02 </wgt>
<wgt id='1019'> -1.4787000e+02 </wgt>
<wgt id='1020'> -1.5043000e+02 </wgt>
<wgt id='1021'> -1.5480000e+02 </wgt>
<wgt id='1022'> -1.5466000e+02 </wgt>
<wgt id='1023'> -1.5196000e+02 </wgt>
<wgt id='1024'> -1.4965000e+02 </wgt>
<wgt id='1025'> -1.6541000e+02 </wgt>
<wgt id='1026'> -1.4951000e+02 </wgt>
<wgt id='1027'> -1.5478000e+02 </wgt>
<wgt id='1028'> -1.4819000e+02 </wgt>
<wgt id='1029'> -1.4995000e+02 </wgt>
<wgt id='1030'> -1.5059000e+02 </wgt>
<wgt id='1031'> -1.4832000e+02 </wgt>
<wgt id='1032'> -1.5510000e+02 </wgt>
<wgt id='1033'> -1.5000000e+02 </wgt>
<wgt id='1034'> -1.4540000e+02 </wgt>
<wgt id='1035'> -1.5692000e+02 </wgt>
<wgt id='1036'> -1.5279000e+02 </wgt>
<wgt id='1037'> -1.5569000e+02 </wgt>
<wgt id='1038'> -1.5980000e+02 </wgt>
<wgt id='1039'> -1.5339000e+02 </wgt>
<wgt id='1040'> -1.4996000e+02 </wgt>
<wgt id='1041'> -1.4534000e+02 </wgt>
<wgt id='1042'> -1.5475000e+02 </wgt>
<wgt id='1043'> -1.5168000e+02 </wgt>
<wgt id='1044'> -1.5470000e+02 </wgt>
<wgt id='1045'> -1.5394000e+02 </wgt>
<wgt id='1046'> -1.4945000e+02 </wgt>
<wgt id='1047'> -1.5476000e+02 </wgt>
<wgt id='1048'> -1.5329000e+02 </wgt>
<wgt id='1049'> -1.4893000e+02 </wgt>
<wgt id='1050'> -1.4835000e+02 </wgt>
<wgt id='1051'> -1.5396000e+02 </wgt>
<wgt id='1052'> -1.5234000e+02 </wgt>
<wgt id='1053'> -1.5208000e+02 </wgt>
<wgt id='1054'> -1.5053000e+02 </wgt>
<wgt id='1055'> -1.5472000e+02 </wgt>
<wgt id='1056'> -1.5115000e+02 </wgt>
<wgt id='1057'> -1.5287000e+02 </wgt>
<wgt id='1058'> -1.4601000e+02 </wgt>
<wgt id='1059'> -1.6175000e+02 </wgt>
<wgt id='1060'> -1.4989000e+02 </wgt>
<wgt id='1061'> -1.5296000e+02 </wgt>
<wgt id='1062'> -1.5155000e+02 </wgt>
<wgt id='1063'> -1.5517000e+02 </wgt>
<wgt id='1064'> -1.5150000e+02 </wgt>
<wgt id='1065'> -1.5608000e+02 </wgt>
<wgt id='1066'> -1.4855000e+02 </wgt>
<wgt id='1067'> -1.5543000e+02 </wgt>
<wgt id='1068'> -1.5123000e+02 </wgt>
<wgt id='1069'> -1.5885000e+02 </wgt>
<wgt id='1070'> -1.4906000e+02 </wgt>
<wgt id='1071'> -1.4675000e+02 </wgt>
<wgt id='1072'> -1.5261000e+02 </wgt>
<wgt id='1073'> -1.5768000e+02 </wgt>
<wgt id='1074'> -1.5001000e+02 </wgt>
<wgt id='1075'> -1.3540000e+02 </wgt>
<wgt id='1076'> -1.5204000e+02 </wgt>
<wgt id='1077'> -1.5004000e+02 </wgt>
<wgt id='1078'> -1.4538000e+02 </wgt>
<wgt id='1079'> -1.5229000e+02 </wgt>
<wgt id='1080'> -1.5895000e+02 </wgt>
<wgt id='1081'> -1.5151000e+02 </wgt>
<wgt id='1082'> -1.5276000e+02 </wgt>
<wgt id='1083'> -1.5219000e+02 </wgt>
<wgt id='1084'> -1.4908000e+02 </wgt>
<wgt id='1085'> -1.5324000e+02 </wgt>
<wgt id='1086'> -1.5304000e+02 </wgt>
<wgt id='1087'> -1.4545000e+02 </wgt>
<wgt id='1088'> -1.5071000e+02 </wgt>
<wgt id='1089'> -1.4976000e+02 </wgt>
<wgt id='1090'> -1.5229000e+02 </wgt>
<wgt id='1091'> -1.5661000e+02 </wgt>
<wgt id='1092'> -1.4983000e+02 </wgt>
<wgt id='1093'> -1.4677000e+02 </wgt>
<wgt id='1094'> -1.5789000e+02 </wgt>
<wgt id='1095'> -1.5045000e+02 </wgt>
<wgt id='1096'> -1.5521000e+02 </wgt>
<wgt id='1097'> -1.4781000e+02 </wgt>
<wgt id='1098'> -1.5533000e+02 </wgt>
<wgt id='1099'> -1.5337000e+02 </wgt>
<wgt id='1100'> -1.6072000e+02 </wgt>
<wgt id='1101'> -1.5833000e+02 </wgt>
<wgt id='1102'> -1.4937000e+02 </wgt>
<wgt id='1103'> -1.4625000e+02 </wgt>
<wgt id='1104'> -1.5546000e+02 </wgt>
<wgt id='1105'> -1.5146096e+02 </wgt>
<wgt id='1106'> -5.3479250e+01 </wgt>
<wgt id='1107'> -1.1273905e+02 </wgt>
<wgt id='1108'> -9.3387221e+01 </wgt>
<wgt id='1109'> -6.6012536e+01 </wgt>
<wgt id='1110'> -1.3890202e+02 </wgt>
<wgt id='1111'> -5.6437783e+01 </wgt>
<wgt id='1112'> -3.9757879e+01 </wgt>
<wgt id='1113'> -8.4202954e+01 </wgt>
<wgt id='1114'> -6.9776740e+01 </wgt>
<wgt id='1115'> -6.1214447e+01 </wgt>
<wgt id='1116'> -6.9805490e+01 </wgt>
<wgt id='1117'> -7.4090515e+01 </wgt>
<wgt id='1118'> -7.0884755e+01 </wgt>
<wgt id='1119'> -7.1043040e+01 </wgt>
<wgt id='1120'> -6.4963275e+01 </wgt>
<wgt id='1121'> -6.9882383e+01 </wgt>
<wgt id='1122'> -7.2176505e+01 </wgt>
<wgt id='1123'> -7.5848498e+01 </wgt>
<wgt id='1124'> -7.2531732e+01 </wgt>
<wgt id='1125'> -7.0151027e+01 </wgt>
<wgt id='1126'> -6.9245110e+01 </wgt>
<wgt id='1127'> -7.0492102e+01 </wgt>
<wgt id='1128'> -6.7763741e+01 </wgt>
<wgt id='1129'> -7.3516071e+01 </wgt>
<wgt id='1130'> -7.1217745e+01 </wgt>
<wgt id='1131'> -7.1797657e+01 </wgt>
<wgt id='1132'> -6.9642118e+01 </wgt>
<wgt id='1133'> -6.9409893e+01 </wgt>
<wgt id='1134'> -7.4937301e+01 </wgt>
<wgt id='1135'> -7.0160474e+01 </wgt>
<wgt id='1136'> -6.7629253e+01 </wgt>
<wgt id='1137'> -6.7849448e+01 </wgt>
<wgt id='1138'> -6.8539670e+01 </wgt>
<wgt id='1139'> -7.1332628e+01 </wgt>
<wgt id='1140'> -6.8485011e+01 </wgt>
<wgt id='1141'> -6.9994908e+01 </wgt>
<wgt id='1142'> -6.8519720e+01 </wgt>
<wgt id='1143'> -7.0589270e+01 </wgt>
<wgt id='1144'> -7.2752775e+01 </wgt>
<wgt id='1145'> -6.5031395e+01 </wgt>
<wgt id='1146'> -7.2324016e+01 </wgt>
<wgt id='1147'> -6.7755342e+01 </wgt>
<wgt id='1148'> -6.8801044e+01 </wgt>
<wgt id='1149'> -6.9791008e+01 </wgt>
<wgt id='1150'> -6.8743266e+01 </wgt>
<wgt id='1151'> -7.0311332e+01 </wgt>
<wgt id='1152'> -7.1382941e+01 </wgt>
<wgt id='1153'> -6.8858008e+01 </wgt>
<wgt id='1154'> -6.9314499e+01 </wgt>
<wgt id='1155'> -7.1436009e+01 </wgt>
<wgt id='1156'> -6.6144971e+01 </wgt>
<wgt id='1157'> -6.6132772e+01 </wgt>
<wgt id='1158'> -6.5606224e+01 </wgt>
<wgt id='1159'> -6.8035039e+01 </wgt>
<wgt id='1160'> -6.5814296e+01 </wgt>
<wgt id='1161'> -6.8615049e+01 </wgt>
<wgt id='1162'> -6.8804979e+01 </wgt>
<wgt id='1163'> -6.9441212e+01 </wgt>
<wgt id='1164'> -6.8789732e+01 </wgt>
<wgt id='1165'> -6.7846882e+01 </wgt>
<wgt id='1166'> -7.2224948e+01 </wgt>
<wgt id='1167'> -7.1177040e+01 </wgt>
<wgt id='1168'> -6.5547211e+01 </wgt>
<wgt id='1169'> -6.6021655e+01 </wgt>
<wgt id='1170'> -6.8328252e+01 </wgt>
<wgt id='1171'> -6.5737966e+01 </wgt>
<wgt id='1172'> -7.0687543e+01 </wgt>
<wgt id='1173'> -7.5846709e+01 </wgt>
<wgt id='1174'> -6.7044192e+01 </wgt>
<wgt id='1175'> -6.8775661e+01 </wgt>
<wgt id='1176'> -7.0929471e+01 </wgt>
<wgt id='1177'> -6.7272290e+01 </wgt>
<wgt id='1178'> -7.0988038e+01 </wgt>
<wgt id='1179'> -6.8641547e+01 </wgt>
<wgt id='1180'> -6.5838355e+01 </wgt>
<wgt id='1181'> -6.3507976e+01 </wgt>
<wgt id='1182'> -7.1709465e+01 </wgt>
<wgt id='1183'> -6.9440747e+01 </wgt>
<wgt id='1184'> -6.7771163e+01 </wgt>
<wgt id='1185'> -7.5159105e+01 </wgt>
<wgt id='1186'> -6.7791839e+01 </wgt>
<wgt id='1187'> -7.6874781e+01 </wgt>
<wgt id='1188'> -7.7393341e+01 </wgt>
<wgt id='1189'> -7.2008573e+01 </wgt>
<wgt id='1190'> -6.6352094e+01 </wgt>
<wgt id='1191'> -7.5922557e+01 </wgt>
<wgt id='1192'> -7.1127485e+01 </wgt>
<wgt id='1193'> -7.1747606e+01 </wgt>
<wgt id='1194'> -6.8077400e+01 </wgt>
<wgt id='1195'> -6.7228628e+01 </wgt>
<wgt id='1196'> -7.1217745e+01 </wgt>
<wgt id='1197'> -6.7337897e+01 </wgt>
<wgt id='1198'> -7.2143029e+01 </wgt>
<wgt id='1199'> -7.1242606e+01 </wgt>
<wgt id='1200'> -6.2656956e+01 </wgt>
<wgt id='1201'> -7.2172990e+01 </wgt>
<wgt id='1202'> -6.8868873e+01 </wgt>
<wgt id='1203'> -7.9829738e+01 </wgt>
<wgt id='1204'> -6.7451182e+01 </wgt>
<wgt id='1205'> -6.7841196e+01 </wgt>
<wgt id='1206'> -7.5247224e+01 </wgt>
<wgt id='1207'> -7.2396613e+01 </wgt>
<wgt id='1208'> -7.2563195e+01 </wgt>
<wgt id='1209'> -6.7420418e+01 </wgt>
<wgt id='1210'> -6.9324189e+01 </wgt>
<wgt id='1211'> -6.4379842e+01 </wgt>
<wgt id='1212'> -7.2719674e+01 </wgt>
<wgt id='1213'> -7.2641349e+01 </wgt>
<wgt id='1214'> -6.9926488e+01 </wgt>
<wgt id='1215'> -7.6920330e+01 </wgt>
<wgt id='1216'> -6.6829189e+01 </wgt>
<wgt id='1217'> -6.7184277e+01 </wgt>
<wgt id='1218'> -6.6402290e+01 </wgt>
<wgt id='1219'> -6.7333571e+01 </wgt>
<wgt id='1220'> -6.6833873e+01 </wgt>
<wgt id='1221'> -6.7367126e+01 </wgt>
<wgt id='1222'> -6.7009407e+01 </wgt>
<wgt id='1223'> -6.6921826e+01 </wgt>
<wgt id='1224'> -6.6432628e+01 </wgt>
<wgt id='1225'> -6.6498709e+01 </wgt>
<wgt id='1226'> -6.6886089e+01 </wgt>
<wgt id='1227'> -6.7063282e+01 </wgt>
<wgt id='1228'> -6.7545099e+01 </wgt>
<wgt id='1229'> -6.5808339e+01 </wgt>
<wgt id='1230'> -6.7028266e+01 </wgt>
<wgt id='1231'> -6.7530002e+01 </wgt>
<wgt id='1232'> -6.6549822e+01 </wgt>
<wgt id='1233'> -6.7638274e+01 </wgt>
<wgt id='1234'> -6.6759136e+01 </wgt>
<wgt id='1235'> -6.6465794e+01 </wgt>
<wgt id='1236'> -6.7211879e+01 </wgt>
<wgt id='1237'> -6.5855565e+01 </wgt>
<wgt id='1238'> -6.6819028e+01 </wgt>
<wgt id='1239'> -6.6935797e+01 </wgt>
<wgt id='1240'> -6.6244557e+01 </wgt>
<wgt id='1241'> -6.7364973e+01 </wgt>
<wgt id='1242'> -6.6836402e+01 </wgt>
<wgt id='1243'> -6.6720588e+01 </wgt>
<wgt id='1244'> -6.6968001e+01 </wgt>
<wgt id='1245'> -6.6084178e+01 </wgt>
<wgt id='1246'> -6.6808722e+01 </wgt>
<wgt id='1247'> -6.6913185e+01 </wgt>
<wgt id='1248'> -6.7031477e+01 </wgt>
<wgt id='1249'> -6.6606159e+01 </wgt>
<wgt id='1250'> -6.6627612e+01 </wgt>
<wgt id='1251'> -6.6817067e+01 </wgt>
<wgt id='1252'> -6.6911698e+01 </wgt>
<wgt id='1253'> -6.7030605e+01 </wgt>
<wgt id='1254'> -6.6908411e+01 </wgt>
<wgt id='1255'> -6.7051680e+01 </wgt>
<wgt id='1256'> -6.6736086e+01 </wgt>
<wgt id='1257'> -6.7476274e+01 </wgt>
<wgt id='1258'> -6.7017859e+01 </wgt>
<wgt id='1259'> -6.6814438e+01 </wgt>
<wgt id='1260'> -6.7033193e+01 </wgt>
<wgt id='1261'> -6.6614756e+01 </wgt>
<wgt id='1262'> -6.6804998e+01 </wgt>
<wgt id='1263'> -6.7087991e+01 </wgt>
<wgt id='1264'> -6.6915563e+01 </wgt>
<wgt id='1265'> -6.6422851e+01 </wgt>
<wgt id='1266'> -6.6722583e+01 </wgt>
<wgt id='1267'> -6.6586407e+01 </wgt>
<wgt id='1268'> -6.7196273e+01 </wgt>
<wgt id='1269'> -6.6961246e+01 </wgt>
<wgt id='1270'> -6.7111205e+01 </wgt>
<wgt id='1271'> -6.6923412e+01 </wgt>
<wgt id='1272'> -6.6498121e+01 </wgt>
<wgt id='1273'> -6.7002023e+01 </wgt>
<wgt id='1274'> -6.6951039e+01 </wgt>
<wgt id='1275'> -6.6843267e+01 </wgt>
<wgt id='1276'> -6.6711226e+01 </wgt>
<wgt id='1277'> -6.6556794e+01 </wgt>
<wgt id='1278'> -6.6561051e+01 </wgt>
<wgt id='1279'> -6.6658848e+01 </wgt>
<wgt id='1280'> -6.6771043e+01 </wgt>
<wgt id='1281'> -6.6813105e+01 </wgt>
<wgt id='1282'> -6.6469131e+01 </wgt>
<wgt id='1283'> -6.7117308e+01 </wgt>
<wgt id='1284'> -6.6973938e+01 </wgt>
<wgt id='1285'> -6.6920727e+01 </wgt>
<wgt id='1286'> -6.6977028e+01 </wgt>
<wgt id='1287'> -6.6673487e+01 </wgt>
<wgt id='1288'> -6.6980503e+01 </wgt>
<wgt id='1289'> -6.6824791e+01 </wgt>
<wgt id='1290'> -6.6550196e+01 </wgt>
<wgt id='1291'> -6.6835943e+01 </wgt>
<wgt id='1292'> -6.6638079e+01 </wgt>
<wgt id='1293'> -6.6762553e+01 </wgt>
<wgt id='1294'> -6.6758915e+01 </wgt>
<wgt id='1295'> -6.6956078e+01 </wgt>
<wgt id='1296'> -6.6729545e+01 </wgt>
<wgt id='1297'> -6.6902493e+01 </wgt>
<wgt id='1298'> -6.6994768e+01 </wgt>
<wgt id='1299'> -6.6939275e+01 </wgt>
<wgt id='1300'> -6.6706214e+01 </wgt>
<wgt id='1301'> -6.6623649e+01 </wgt>
<wgt id='1302'> -6.6847723e+01 </wgt>
<wgt id='1303'> -6.6964154e+01 </wgt>
<wgt id='1304'> -6.6794232e+01 </wgt>
<wgt id='1305'> -6.6833440e+01 </wgt>
<wgt id='1306'> -6.6805319e+01 </wgt>
<wgt id='1307'> -6.6964967e+01 </wgt>
<wgt id='1308'> -6.6887193e+01 </wgt>
<wgt id='1309'> -6.6666488e+01 </wgt>
<wgt id='1310'> -6.6957753e+01 </wgt>
<wgt id='1311'> -6.6942554e+01 </wgt>
<wgt id='1312'> -6.6691987e+01 </wgt>
<wgt id='1313'> -6.6757157e+01 </wgt>
<wgt id='1314'> -6.6908909e+01 </wgt>
<wgt id='1315'> -6.6804766e+01 </wgt>
<wgt id='1316'> -6.6733905e+01 </wgt>
<wgt id='1317'> -6.2242858e+01 </wgt>
<wgt id='1318'> -7.1733677e+01 </wgt>
<wgt id='1319'> -6.1649073e+01 </wgt>
<wgt id='1320'> -7.4571076e+01 </wgt>
<wgt id='1321'> -7.4617486e+01 </wgt>
<wgt id='1322'> -7.4777930e+01 </wgt>
<wgt id='1323'> -7.7381027e+01 </wgt>
<wgt id='1324'> -7.3096850e+01 </wgt>
<wgt id='1325'> -7.4734832e+01 </wgt>
<wgt id='1326'> -7.4350254e+01 </wgt>
<wgt id='1327'> -7.6248251e+01 </wgt>
<wgt id='1328'> -7.3572038e+01 </wgt>
<wgt id='1329'> -7.2481266e+01 </wgt>
<wgt id='1330'> -7.6122277e+01 </wgt>
<wgt id='1331'> -7.6533693e+01 </wgt>
<wgt id='1332'> -7.3374350e+01 </wgt>
<wgt id='1333'> -7.0908398e+01 </wgt>
<wgt id='1334'> -7.6769829e+01 </wgt>
<wgt id='1335'> -7.5662034e+01 </wgt>
<wgt id='1336'> -7.3835552e+01 </wgt>
<wgt id='1337'> -7.3473738e+01 </wgt>
<wgt id='1338'> -7.5873596e+01 </wgt>
<wgt id='1339'> -7.6011280e+01 </wgt>
<wgt id='1340'> -7.2988240e+01 </wgt>
<wgt id='1341'> -7.4961550e+01 </wgt>
<wgt id='1342'> -7.3782208e+01 </wgt>
<wgt id='1343'> -7.3930279e+01 </wgt>
<wgt id='1344'> -7.5164260e+01 </wgt>
<wgt id='1345'> -7.3430401e+01 </wgt>
<wgt id='1346'> -7.5597178e+01 </wgt>
<wgt id='1347'> -7.4226459e+01 </wgt>
<wgt id='1348'> -7.5038610e+01 </wgt>
<wgt id='1349'> -7.3760255e+01 </wgt>
<wgt id='1350'> -7.4852327e+01 </wgt>
<wgt id='1351'> -7.4764578e+01 </wgt>
<wgt id='1352'> -7.4319388e+01 </wgt>
<wgt id='1353'> -7.4378784e+01 </wgt>
<wgt id='1354'> -7.4963658e+01 </wgt>
<wgt id='1355'> -7.5978693e+01 </wgt>
<wgt id='1356'> -7.3204972e+01 </wgt>
<wgt id='1357'> -7.5485122e+01 </wgt>
<wgt id='1358'> -7.3133292e+01 </wgt>
<wgt id='1359'> -7.4645709e+01 </wgt>
<wgt id='1360'> -7.4415839e+01 </wgt>
<wgt id='1361'> -7.5429514e+01 </wgt>
<wgt id='1362'> -7.3743781e+01 </wgt>
<wgt id='1363'> -7.5854878e+01 </wgt>
<wgt id='1364'> -7.3377454e+01 </wgt>
<wgt id='1365'> -7.3318468e+01 </wgt>
<wgt id='1366'> -7.4196286e+01 </wgt>
<wgt id='1367'> -7.3118996e+01 </wgt>
<wgt id='1368'> -7.5716746e+01 </wgt>
<wgt id='1369'> -7.5043985e+01 </wgt>
<wgt id='1370'> -7.2346273e+01 </wgt>
<wgt id='1371'> -7.4490515e+01 </wgt>
<wgt id='1372'> -7.4395421e+01 </wgt>
<wgt id='1373'> -7.2801158e+01 </wgt>
<wgt id='1374'> -7.5502377e+01 </wgt>
<wgt id='1375'> -7.3729660e+01 </wgt>
<wgt id='1376'> -7.5525597e+01 </wgt>
<wgt id='1377'> -6.9856650e+01 </wgt>
<wgt id='1378'> -7.9283278e+01 </wgt>
<wgt id='1379'> -7.5204546e+01 </wgt>
<wgt id='1380'> -7.0855697e+01 </wgt>
<wgt id='1381'> -7.9253295e+01 </wgt>
<wgt id='1382'> -5.6777481e+01 </wgt>
<wgt id='1383'> -7.4918501e+01 </wgt>
<wgt id='1384'> -7.4279872e+01 </wgt>
<wgt id='1385'> -1.0152439e+02 </wgt>
<wgt id='1386'> -1.0174307e+02 </wgt>
<wgt id='1387'> -1.0127588e+02 </wgt>
<wgt id='1388'> -1.0072614e+02 </wgt>
<wgt id='1389'> -1.0289652e+02 </wgt>
<wgt id='1390'> -1.0127021e+02 </wgt>
<wgt id='1391'> -1.0182422e+02 </wgt>
<wgt id='1392'> -1.0171519e+02 </wgt>
<wgt id='1393'> -1.0139129e+02 </wgt>
<wgt id='1394'> -1.0094158e+02 </wgt>
<wgt id='1395'> -1.0224736e+02 </wgt>
<wgt id='1396'> -1.0031077e+02 </wgt>
<wgt id='1397'> -1.0215474e+02 </wgt>
<wgt id='1398'> -1.0168167e+02 </wgt>
<wgt id='1399'> -1.0139201e+02 </wgt>
<wgt id='1400'> -1.0130856e+02 </wgt>
<wgt id='1401'> -1.0167052e+02 </wgt>
<wgt id='1402'> -1.0121098e+02 </wgt>
<wgt id='1403'> -1.0166696e+02 </wgt>
<wgt id='1404'> -1.0280446e+02 </wgt>
<wgt id='1405'> -1.0090493e+02 </wgt>
<wgt id='1406'> -1.0143398e+02 </wgt>
<wgt id='1407'> -1.0167880e+02 </wgt>
<wgt id='1408'> -1.0149932e+02 </wgt>
<wgt id='1409'> -1.0157836e+02 </wgt>
<wgt id='1410'> -1.0148820e+02 </wgt>
<wgt id='1411'> -1.0154216e+02 </wgt>
<wgt id='1412'> -1.0284840e+02 </wgt>
<wgt id='1413'> -9.9897067e+01 </wgt>
<wgt id='1414'> -1.0211853e+02 </wgt>
<wgt id='1415'> -1.0114135e+02 </wgt>
<wgt id='1416'> -1.0163667e+02 </wgt>
<wgt id='1417'> -1.0145665e+02 </wgt>
<wgt id='1418'> -1.0184656e+02 </wgt>
<wgt id='1419'> -1.0085219e+02 </wgt>
<wgt id='1420'> -1.0073576e+02 </wgt>
<wgt id='1421'> -1.0162828e+02 </wgt>
<wgt id='1422'> -1.0180205e+02 </wgt>
<wgt id='1423'> -1.0120283e+02 </wgt>
<wgt id='1424'> -1.0167363e+02 </wgt>
<wgt id='1425'> -1.0097316e+02 </wgt>
<wgt id='1426'> -1.0172809e+02 </wgt>
<wgt id='1427'> -1.0133023e+02 </wgt>
<wgt id='1428'> -1.0190291e+02 </wgt>
<wgt id='1429'> -1.0161996e+02 </wgt>
<wgt id='1430'> -1.0156300e+02 </wgt>
<wgt id='1431'> -1.0148866e+02 </wgt>
<wgt id='1432'> -1.0149309e+02 </wgt>
<wgt id='1433'> -1.0155370e+02 </wgt>
<wgt id='1434'> -1.0142020e+02 </wgt>
<wgt id='1435'> -1.0165212e+02 </wgt>
<wgt id='1436'> +0.0000000e+00 </wgt>
<wgt id='1437'> +0.0000000e+00 </wgt>
<wgt id='1438'> +0.0000000e+00 </wgt>
<wgt id='1439'> +0.0000000e+00 </wgt>
<wgt id='1440'> +0.0000000e+00 </wgt>
<wgt id='1441'> +0.0000000e+00 </wgt>
<wgt id='1442'> +0.0000000e+00 </wgt>
<wgt id='1443'> +0.0000000e+00 </wgt>
<wgt id='1444'> +0.0000000e+00 </wgt>
<wgt id='1445'> +0.0000000e+00 </wgt>
<wgt id='1446'> +0.0000000e+00 </wgt>
<wgt id='1447'> +0.0000000e+00 </wgt>
<wgt id='1448'> +0.0000000e+00 </wgt>
<wgt id='1449'> +0.0000000e+00 </wgt>
<wgt id='1450'> +0.0000000e+00 </wgt>
<wgt id='1451'> +0.0000000e+00 </wgt>
<wgt id='1452'> +0.0000000e+00 </wgt>
<wgt id='1453'> +0.0000000e+00 </wgt>
<wgt id='1454'> +0.0000000e+00 </wgt>
<wgt id='1455'> +0.0000000e+00 </wgt>
<wgt id='1456'> +0.0000000e+00 </wgt>
<wgt id='1457'> +0.0000000e+00 </wgt>
<wgt id='1458'> +0.0000000e+00 </wgt>
<wgt id='1459'> +0.0000000e+00 </wgt>
<wgt id='1460'> +0.0000000e+00 </wgt>
<wgt id='1461'> +0.0000000e+00 </wgt>
<wgt id='1462'> +0.0000000e+00 </wgt>
<wgt id='1463'> +0.0000000e+00 </wgt>
<wgt id='1464'> +0.0000000e+00 </wgt>
<wgt id='1465'> -7.5105436e+01 </wgt>
<wgt id='1466'> -7.5018615e+01 </wgt>
<wgt id='1467'> -7.4731838e+01 </wgt>
<wgt id='1468'> -7.6031557e+01 </wgt>
<wgt id='1469'> -7.5579597e+01 </wgt>
<wgt id='1470'> -7.4730886e+01 </wgt>
<wgt id='1471'> -7.4686780e+01 </wgt>
<wgt id='1472'> -7.4842757e+01 </wgt>
<wgt id='1473'> -7.5290995e+01 </wgt>
<wgt id='1474'> -7.5857582e+01 </wgt>
<wgt id='1475'> -7.4528920e+01 </wgt>
<wgt id='1476'> -7.6653653e+01 </wgt>
<wgt id='1477'> -7.4941185e+01 </wgt>
<wgt id='1478'> -7.3575914e+01 </wgt>
<wgt id='1479'> -7.5537884e+01 </wgt>
<wgt id='1480'> -7.4174960e+01 </wgt>
<wgt id='1481'> -7.5032310e+01 </wgt>
<wgt id='1482'> -7.5060557e+01 </wgt>
<wgt id='1483'> -7.4746549e+01 </wgt>
<wgt id='1484'> -7.5002455e+01 </wgt>
<wgt id='1485'> -7.4675916e+01 </wgt>
<wgt id='1486'> -7.4791158e+01 </wgt>
<wgt id='1487'> -7.4909303e+01 </wgt>
<wgt id='1488'> -7.5215612e+01 </wgt>
<wgt id='1489'> -7.4813746e+01 </wgt>
<wgt id='1490'> -7.5125938e+01 </wgt>
<wgt id='1491'> -7.5377241e+01 </wgt>
<wgt id='1492'> -7.5045233e+01 </wgt>
<wgt id='1493'> -7.4924672e+01 </wgt>
<wgt id='1494'> -7.5023883e+01 </wgt>
<wgt id='1495'> -7.5028639e+01 </wgt>
<wgt id='1496'> -7.5042305e+01 </wgt>
<wgt id='1497'> -7.4997691e+01 </wgt>
<wgt id='1498'> -7.5045123e+01 </wgt>
<wgt id='1499'> -7.5000031e+01 </wgt>
<wgt id='1500'> -7.5127013e+01 </wgt>
<wgt id='1501'> -7.5071383e+01 </wgt>
<wgt id='1502'> -7.4981018e+01 </wgt>
<wgt id='1503'> -7.5035872e+01 </wgt>
<wgt id='1504'> -7.4927995e+01 </wgt>
<wgt id='1505'> -7.5042574e+01 </wgt>
<wgt id='1506'> -7.5069607e+01 </wgt>
<wgt id='1507'> -7.5005448e+01 </wgt>
<wgt id='1508'> -7.5034392e+01 </wgt>
<wgt id='1509'> -7.4971250e+01 </wgt>
<wgt id='1510'> -7.5082299e+01 </wgt>
<wgt id='1511'> -7.5042805e+01 </wgt>
<wgt id='1512'> -7.5002933e+01 </wgt>
<wgt id='1513'> -7.5073294e+01 </wgt>
<wgt id='1514'> -7.4976299e+01 </wgt>
<wgt id='1515'> -7.5023342e+01 </wgt>
<wgt id='1516'> -7.5003947e+01 </wgt>
<wgt id='1517'> -7.4958228e+01 </wgt>
<wgt id='1518'> -7.5008635e+01 </wgt>
<wgt id='1519'> -7.4993508e+01 </wgt>
<wgt id='1520'> -7.4996377e+01 </wgt>
<wgt id='1521'> -7.5004249e+01 </wgt>
<wgt id='1522'> -7.5037660e+01 </wgt>
<wgt id='1523'> -7.5003771e+01 </wgt>
<wgt id='1524'> -7.5032649e+01 </wgt>
<wgt id='1525'> -7.5009649e+01 </wgt>
<wgt id='1526'> -7.5000111e+01 </wgt>
<wgt id='1527'> -7.5013522e+01 </wgt>
<wgt id='1528'> -7.4992965e+01 </wgt>
<wgt id='1529'> -7.5015645e+01 </wgt>
<wgt id='1530'> -7.5003215e+01 </wgt>
<wgt id='1531'> -7.5003039e+01 </wgt>
<wgt id='1532'> -7.5081834e+01 </wgt>
<wgt id='1533'> -7.5056197e+01 </wgt>
<wgt id='1534'> -7.5031461e+01 </wgt>
<wgt id='1535'> -7.5023376e+01 </wgt>
<wgt id='1536'> -7.4978458e+01 </wgt>
<wgt id='1537'> -7.5037547e+01 </wgt>
<wgt id='1538'> -7.5010852e+01 </wgt>
<wgt id='1539'> -7.4967960e+01 </wgt>
<wgt id='1540'> -7.4994459e+01 </wgt>
<wgt id='1541'> -7.5030222e+01 </wgt>
<wgt id='1542'> -7.5043647e+01 </wgt>
<wgt id='1543'> -7.4958959e+01 </wgt>
<wgt id='1544'> -7.5034899e+01 </wgt>
<wgt id='1545'> -7.5049084e+01 </wgt>
<wgt id='1546'> -7.5005299e+01 </wgt>
<wgt id='1547'> -7.4988789e+01 </wgt>
<wgt id='1548'> -7.5041957e+01 </wgt>
<wgt id='1549'> -7.5030854e+01 </wgt>
<wgt id='1550'> -7.5051531e+01 </wgt>
<wgt id='1551'> -7.5011193e+01 </wgt>
<wgt id='1552'> -7.5090041e+01 </wgt>
<wgt id='1553'> -7.5044841e+01 </wgt>
<wgt id='1554'> -7.5027499e+01 </wgt>
<wgt id='1555'> -7.5032911e+01 </wgt>
<wgt id='1556'> -7.5011144e+01 </wgt>
<wgt id='1557'> -7.4970290e+01 </wgt>
<wgt id='1558'> -7.5013671e+01 </wgt>
<wgt id='1559'> -7.5004908e+01 </wgt>
<wgt id='1560'> -7.4991030e+01 </wgt>
<wgt id='1561'> -7.4996862e+01 </wgt>
<wgt id='1562'> -7.4985566e+01 </wgt>
<wgt id='1563'> -7.5047692e+01 </wgt>
<wgt id='1564'> -7.5024456e+01 </wgt>
<wgt id='1565'> -7.5039851e+01 </wgt>
<wgt id='1566'> -7.5024115e+01 </wgt>
<wgt id='1567'> -7.1549025e+01 </wgt>
<wgt id='1568'> -7.8332771e+01 </wgt>
<wgt id='1569'> -7.5494751e+01 </wgt>
<wgt id='1570'> -7.5310600e+01 </wgt>
<wgt id='1571'> -7.6063631e+01 </wgt>
<wgt id='1572'> -7.4450221e+01 </wgt>
<wgt id='1573'> -7.5149075e+01 </wgt>
<wgt id='1574'> -7.6072146e+01 </wgt>
<wgt id='1575'> -7.5236150e+01 </wgt>
<wgt id='1576'> -7.5464238e+01 </wgt>
<wgt id='1577'> -7.5613502e+01 </wgt>
<wgt id='1578'> -7.5443812e+01 </wgt>
<wgt id='1579'> -7.5157843e+01 </wgt>
<wgt id='1580'> -7.7033142e+01 </wgt>
<wgt id='1581'> -7.4410764e+01 </wgt>
<wgt id='1582'> -7.3981207e+01 </wgt>
<wgt id='1583'> -7.4189603e+01 </wgt>
<wgt id='1584'> -7.5016487e+01 </wgt>
<wgt id='1585'> -7.6294159e+01 </wgt>
<wgt id='1586'> -7.5463041e+01 </wgt>
<wgt id='1587'> -7.5466033e+01 </wgt>
<wgt id='1588'> -7.5599448e+01 </wgt>
<wgt id='1589'> -7.6045833e+01 </wgt>
<wgt id='1590'> -7.5340386e+01 </wgt>
<wgt id='1591'> -7.5540465e+01 </wgt>
<wgt id='1592'> -7.5412470e+01 </wgt>
<wgt id='1593'> -7.5254131e+01 </wgt>
<wgt id='1594'> -7.5446036e+01 </wgt>
<wgt id='1595'> -7.5357852e+01 </wgt>
<wgt id='1596'> -7.5665604e+01 </wgt>
<wgt id='1597'> -7.5622680e+01 </wgt>
<wgt id='1598'> -7.5464832e+01 </wgt>
<wgt id='1599'> -7.5458497e+01 </wgt>
<wgt id='1600'> -7.5679754e+01 </wgt>
<wgt id='1601'> -7.5465834e+01 </wgt>
<wgt id='1602'> -7.5519663e+01 </wgt>
<wgt id='1603'> -7.5454958e+01 </wgt>
<wgt id='1604'> -7.5545058e+01 </wgt>
<wgt id='1605'> -7.5507626e+01 </wgt>
<wgt id='1606'> -7.5563188e+01 </wgt>
<wgt id='1607'> -7.5476653e+01 </wgt>
<wgt id='1608'> -7.5415723e+01 </wgt>
<wgt id='1609'> -7.5425891e+01 </wgt>
<wgt id='1610'> -7.5422620e+01 </wgt>
<wgt id='1611'> -7.5450609e+01 </wgt>
<wgt id='1612'> -7.5548161e+01 </wgt>
<wgt id='1613'> -7.5491130e+01 </wgt>
<wgt id='1614'> -7.5461148e+01 </wgt>
<wgt id='1615'> -7.5463014e+01 </wgt>
<wgt id='1616'> -7.5428609e+01 </wgt>
<wgt id='1617'> -7.5552843e+01 </wgt>
<wgt id='1618'> -7.5442375e+01 </wgt>
<wgt id='1619'> -7.5526140e+01 </wgt>
<wgt id='1620'> -7.5504508e+01 </wgt>
<wgt id='1621'> -7.5500271e+01 </wgt>
<wgt id='1622'> -7.5510482e+01 </wgt>
<wgt id='1623'> -7.5490339e+01 </wgt>
<wgt id='1624'> -7.5507080e+01 </wgt>
<wgt id='1625'> -7.5487886e+01 </wgt>
<wgt id='1626'> -7.5493403e+01 </wgt>
<wgt id='1627'> -7.5510134e+01 </wgt>
<wgt id='1628'> -7.5500934e+01 </wgt>
<wgt id='1629'> -7.5508946e+01 </wgt>
<wgt id='1630'> -7.5514384e+01 </wgt>
<wgt id='1631'> -7.5489135e+01 </wgt>
<wgt id='1632'> -7.5490192e+01 </wgt>
<wgt id='1633'> -7.5505018e+01 </wgt>
<wgt id='1634'> -7.5481967e+01 </wgt>
<wgt id='1635'> -7.5491563e+01 </wgt>
<wgt id='1636'> -7.5485274e+01 </wgt>
<wgt id='1637'> -7.5517546e+01 </wgt>
<wgt id='1638'> -7.5495357e+01 </wgt>
<wgt id='1639'> -7.5476606e+01 </wgt>
<wgt id='1640'> -7.5548512e+01 </wgt>
<wgt id='1641'> -7.5512922e+01 </wgt>
<wgt id='1642'> -7.5461200e+01 </wgt>
<wgt id='1643'> -7.5502992e+01 </wgt>
<wgt id='1644'> -7.5498543e+01 </wgt>
<wgt id='1645'> -7.5531948e+01 </wgt>
<wgt id='1646'> -7.5508410e+01 </wgt>
<wgt id='1647'> -7.5526087e+01 </wgt>
<wgt id='1648'> -7.5487026e+01 </wgt>
<wgt id='1649'> -7.5496853e+01 </wgt>
<wgt id='1650'> -7.5527095e+01 </wgt>
<wgt id='1651'> -7.5521173e+01 </wgt>
<wgt id='1652'> -7.5476253e+01 </wgt>
<wgt id='1653'> -7.5462962e+01 </wgt>
<wgt id='1654'> -7.5489792e+01 </wgt>
<wgt id='1655'> -7.5544095e+01 </wgt>
<wgt id='1656'> -7.5444843e+01 </wgt>
<wgt id='1657'> -7.5460840e+01 </wgt>
<wgt id='1658'> -7.5459968e+01 </wgt>
<wgt id='1659'> -7.5492020e+01 </wgt>
<wgt id='1660'> -7.5463648e+01 </wgt>
<wgt id='1661'> -7.5471309e+01 </wgt>
<wgt id='1662'> -7.5491553e+01 </wgt>
<wgt id='1663'> -7.5458251e+01 </wgt>
<wgt id='1664'> -7.5502249e+01 </wgt>
<wgt id='1665'> -7.5496146e+01 </wgt>
<wgt id='1666'> -7.5502634e+01 </wgt>
<wgt id='1667'> -7.5486418e+01 </wgt>
<wgt id='1668'> -7.5494112e+01 </wgt>
<wgt id='1669'> -7.5502306e+01 </wgt>
<wgt id='1670'> -7.2372787e+01 </wgt>
<wgt id='1671'> -7.8113608e+01 </wgt>
<wgt id='1672'> -7.5169006e+01 </wgt>
<wgt id='1673'> -7.5255902e+01 </wgt>
<wgt id='1674'> -7.4541948e+01 </wgt>
<wgt id='1675'> -7.5182741e+01 </wgt>
<wgt id='1676'> -7.4752048e+01 </wgt>
<wgt id='1677'> -7.7960712e+01 </wgt>
<wgt id='1678'> -7.4779934e+01 </wgt>
<wgt id='1679'> -7.5181796e+01 </wgt>
<wgt id='1680'> -7.5485621e+01 </wgt>
<wgt id='1681'> -7.5025287e+01 </wgt>
<wgt id='1682'> -7.5256033e+01 </wgt>
<wgt id='1683'> -7.5092344e+01 </wgt>
<wgt id='1684'> -7.5313607e+01 </wgt>
<wgt id='1685'> -7.5199833e+01 </wgt>
<wgt id='1686'> -7.5060908e+01 </wgt>
<wgt id='1687'> -7.5319741e+01 </wgt>
<wgt id='1688'> -7.5142900e+01 </wgt>
<wgt id='1689'> -7.4871999e+01 </wgt>
<wgt id='1690'> -7.5304024e+01 </wgt>
<wgt id='1691'> -7.5233387e+01 </wgt>
<wgt id='1692'> -7.5391554e+01 </wgt>
<wgt id='1693'> -7.5134778e+01 </wgt>
<wgt id='1694'> -7.5084994e+01 </wgt>
<wgt id='1695'> -7.5219046e+01 </wgt>
<wgt id='1696'> -7.4939110e+01 </wgt>
<wgt id='1697'> -7.5192444e+01 </wgt>
<wgt id='1698'> -7.5085383e+01 </wgt>
<wgt id='1699'> -7.5255246e+01 </wgt>
<wgt id='1700'> -7.5213785e+01 </wgt>
<wgt id='1701'> -7.5292389e+01 </wgt>
<wgt id='1702'> -7.5199197e+01 </wgt>
<wgt id='1703'> -7.1549025e+01 </wgt>
<wgt id='1704'> -7.8332771e+01 </wgt>
<wgt id='1705'> -7.5512173e+01 </wgt>
<wgt id='1706'> -7.5158470e+01 </wgt>
<wgt id='1707'> -7.5700654e+01 </wgt>
<wgt id='1708'> -7.5380953e+01 </wgt>
<wgt id='1709'> -7.5895031e+01 </wgt>
<wgt id='1710'> -7.3700790e+01 </wgt>
<wgt id='1711'> -7.5391258e+01 </wgt>
<wgt id='1712'> -7.5486329e+01 </wgt>
<wgt id='1713'> -7.5053682e+01 </wgt>
<wgt id='1714'> -7.5185180e+01 </wgt>
<wgt id='1715'> -7.5487964e+01 </wgt>
<wgt id='1716'> -7.5197740e+01 </wgt>
<wgt id='1717'> -7.5582707e+01 </wgt>
<wgt id='1718'> -7.5712620e+01 </wgt>
<wgt id='1719'> -7.5113586e+01 </wgt>
<wgt id='1720'> -7.4980169e+01 </wgt>
<wgt id='1721'> -7.5140843e+01 </wgt>
<wgt id='1722'> -7.6534023e+01 </wgt>
<wgt id='1723'> -7.5333530e+01 </wgt>
<wgt id='1724'> -7.5407318e+01 </wgt>
<wgt id='1725'> -7.5974247e+01 </wgt>
<wgt id='1726'> -7.5889295e+01 </wgt>
<wgt id='1727'> -7.7729807e+01 </wgt>
<wgt id='1728'> -7.5473935e+01 </wgt>
<wgt id='1729'> -7.5638648e+01 </wgt>
<wgt id='1730'> -7.5325137e+01 </wgt>
<wgt id='1731'> -7.5639055e+01 </wgt>
<wgt id='1732'> -7.5674562e+01 </wgt>
<wgt id='1733'> -7.5707805e+01 </wgt>
<wgt id='1734'> -7.5360312e+01 </wgt>
<wgt id='1735'> -7.5543253e+01 </wgt>
<wgt id='1736'> -7.2372787e+01 </wgt>
<wgt id='1737'> -7.8113608e+01 </wgt>
<wgt id='1738'> -7.7218195e+01 </wgt>
<wgt id='1739'> -7.7073799e+01 </wgt>
<wgt id='1740'> -7.7362215e+01 </wgt>
<wgt id='1741'> -7.7445463e+01 </wgt>
<wgt id='1742'> -7.6991454e+01 </wgt>
<wgt id='1743'> -7.7382643e+01 </wgt>
<wgt id='1744'> -7.7054204e+01 </wgt>
<wgt id='1745'> -7.7569637e+01 </wgt>
<wgt id='1746'> -7.6876170e+01 </wgt>
<wgt id='1747'> -7.7333171e+01 </wgt>
<wgt id='1748'> -7.7106919e+01 </wgt>
<wgt id='1749'> -7.7019737e+01 </wgt>
<wgt id='1750'> -7.7443099e+01 </wgt>
<wgt id='1751'> -7.6822751e+01 </wgt>
<wgt id='1752'> -7.7619249e+01 </wgt>
<wgt id='1753'> -7.7184697e+01 </wgt>
<wgt id='1754'> -7.7089574e+01 </wgt>
<wgt id='1755'> -7.7522905e+01 </wgt>
<wgt id='1756'> -7.6915721e+01 </wgt>
<wgt id='1757'> -7.6845488e+01 </wgt>
<wgt id='1758'> -7.7566140e+01 </wgt>
<wgt id='1759'> -7.7651996e+01 </wgt>
<wgt id='1760'> -7.6687929e+01 </wgt>
<wgt id='1761'> -7.6853788e+01 </wgt>
<wgt id='1762'> -7.7129844e+01 </wgt>
<wgt id='1763'> -7.7540393e+01 </wgt>
<wgt id='1764'> -7.7018978e+01 </wgt>
<wgt id='1765'> -7.7112459e+01 </wgt>
<wgt id='1766'> -7.7415777e+01 </wgt>
<wgt id='1767'> -7.7218195e+01 </wgt>
<wgt id='1768'> -7.7197672e+01 </wgt>
<wgt id='1769'> -7.7196575e+01 </wgt>
<wgt id='1770'> -7.7184948e+01 </wgt>
<wgt id='1771'> -7.7202977e+01 </wgt>
<wgt id='1772'> -7.7543638e+01 </wgt>
<wgt id='1773'> -7.6305400e+01 </wgt>
<wgt id='1774'> -7.6797077e+01 </wgt>
<wgt id='1775'> -7.7608269e+01 </wgt>
<wgt id='1776'> -7.8348280e+01 </wgt>
<wgt id='1777'> -7.6169501e+01 </wgt>
<wgt id='1778'> -7.7273319e+01 </wgt>
<wgt id='1779'> -7.6040516e+01 </wgt>
<wgt id='1780'> -7.6173421e+01 </wgt>
<wgt id='1781'> -7.3186106e+01 </wgt>
<wgt id='1782'> -7.3100230e+01 </wgt>
<wgt id='1783'> -7.3258535e+01 </wgt>
<wgt id='1784'> -7.3298052e+01 </wgt>
<wgt id='1785'> -7.3061214e+01 </wgt>
<wgt id='1786'> -7.3396331e+01 </wgt>
<wgt id='1787'> -7.2963206e+01 </wgt>
<wgt id='1788'> -7.3656472e+01 </wgt>
<wgt id='1789'> -7.2715021e+01 </wgt>
<wgt id='1790'> -7.3165906e+01 </wgt>
<wgt id='1791'> -7.3199211e+01 </wgt>
<wgt id='1792'> -7.3409272e+01 </wgt>
<wgt id='1793'> -7.2951113e+01 </wgt>
<wgt id='1794'> -7.2923074e+01 </wgt>
<wgt id='1795'> -7.3433715e+01 </wgt>
<wgt id='1796'> -7.2989022e+01 </wgt>
<wgt id='1797'> -7.3254209e+01 </wgt>
<wgt id='1798'> -7.3171219e+01 </wgt>
<wgt id='1799'> -7.3170164e+01 </wgt>
<wgt id='1800'> -7.2996200e+01 </wgt>
<wgt id='1801'> -7.3358738e+01 </wgt>
<wgt id='1802'> -7.2314217e+01 </wgt>
<wgt id='1803'> -7.3925754e+01 </wgt>
<wgt id='1804'> -7.3253031e+01 </wgt>
<wgt id='1805'> -7.3085723e+01 </wgt>
<wgt id='1806'> -7.2895407e+01 </wgt>
<wgt id='1807'> -7.3231580e+01 </wgt>
<wgt id='1808'> -7.3171438e+01 </wgt>
<wgt id='1809'> -7.3291650e+01 </wgt>
<wgt id='1810'> -7.2957430e+01 </wgt>
<wgt id='1811'> -7.3029539e+01 </wgt>
<wgt id='1812'> -7.2729873e+01 </wgt>
<wgt id='1813'> -7.3001795e+01 </wgt>
<wgt id='1814'> -7.2870523e+01 </wgt>
<wgt id='1815'> -7.2877987e+01 </wgt>
<wgt id='1816'> -7.2739115e+01 </wgt>
<wgt id='1817'> -7.2592261e+01 </wgt>
<wgt id='1818'> -7.3513856e+01 </wgt>
<wgt id='1819'> -7.3821451e+01 </wgt>
<wgt id='1820'> -7.2084667e+01 </wgt>
<wgt id='1821'> -7.2616489e+01 </wgt>
<wgt id='1822'> -7.2662895e+01 </wgt>
<wgt id='1823'> -7.2273971e+01 </wgt>
<wgt id='1824'> -7.4091501e+01 </wgt>
<wgt id='1825'> -7.4083334e+01 </wgt>
<wgt id='1826'> -7.4074822e+01 </wgt>
<wgt id='1827'> -7.4066425e+01 </wgt>
<wgt id='1828'> -7.4058001e+01 </wgt>
<wgt id='1829'> -7.4049826e+01 </wgt>
<wgt id='1830'> -7.4041393e+01 </wgt>
<wgt id='1831'> -7.4032268e+01 </wgt>
<wgt id='1832'> -7.4023666e+01 </wgt>
<wgt id='1833'> -7.4015243e+01 </wgt>
<wgt id='1834'> -7.4006929e+01 </wgt>
<wgt id='1835'> -7.3998424e+01 </wgt>
<wgt id='1836'> -7.3990313e+01 </wgt>
<wgt id='1837'> -7.3981898e+01 </wgt>
<wgt id='1838'> -7.3973502e+01 </wgt>
<wgt id='1839'> -7.3965078e+01 </wgt>
<wgt id='1840'> -7.3956775e+01 </wgt>
<wgt id='1841'> -7.3947843e+01 </wgt>
<wgt id='1842'> -7.3939511e+01 </wgt>
<wgt id='1843'> -7.3931092e+01 </wgt>
<wgt id='1844'> -7.3922749e+01 </wgt>
<wgt id='1845'> -7.3914317e+01 </wgt>
<wgt id='1846'> -7.3906157e+01 </wgt>
<wgt id='1847'> -7.3897754e+01 </wgt>
<wgt id='1848'> -7.3889348e+01 </wgt>
<wgt id='1849'> -7.3881130e+01 </wgt>
<wgt id='1850'> -7.3872393e+01 </wgt>
<wgt id='1851'> -7.3863982e+01 </wgt>
<wgt id='1852'> -7.3855334e+01 </wgt>
<wgt id='1853'> -7.3847118e+01 </wgt>
<wgt id='1854'> -7.3838690e+01 </wgt>
<wgt id='1855'> -7.4754220e+01 </wgt>
<wgt id='1856'> -7.4553733e+01 </wgt>
<wgt id='1857'> -7.5314834e+01 </wgt>
<wgt id='1858'> -7.3719055e+01 </wgt>
<wgt id='1859'> -7.4407162e+01 </wgt>
<wgt id='1860'> -7.5324272e+01 </wgt>
<wgt id='1861'> -7.4510263e+01 </wgt>
<wgt id='1862'> -7.4736852e+01 </wgt>
<wgt id='1863'> -7.4872085e+01 </wgt>
<wgt id='1864'> -7.4704333e+01 </wgt>
<wgt id='1865'> -7.4414581e+01 </wgt>
<wgt id='1866'> -7.6297761e+01 </wgt>
<wgt id='1867'> -7.3690603e+01 </wgt>
<wgt id='1868'> -7.3258208e+01 </wgt>
<wgt id='1869'> -7.3460320e+01 </wgt>
<wgt id='1870'> -7.4258230e+01 </wgt>
<wgt id='1871'> -7.5567432e+01 </wgt>
<wgt id='1872'> -7.4714968e+01 </wgt>
<wgt id='1873'> -7.4721711e+01 </wgt>
<wgt id='1874'> -7.4869575e+01 </wgt>
<wgt id='1875'> -7.5313056e+01 </wgt>
<wgt id='1876'> -7.4592468e+01 </wgt>
<wgt id='1877'> -7.4797491e+01 </wgt>
<wgt id='1878'> -7.4675670e+01 </wgt>
<wgt id='1879'> -7.4507115e+01 </wgt>
<wgt id='1880'> -7.4695195e+01 </wgt>
<wgt id='1881'> -7.4606287e+01 </wgt>
<wgt id='1882'> -7.4936675e+01 </wgt>
<wgt id='1883'> -7.4886866e+01 </wgt>
<wgt id='1884'> -7.4718811e+01 </wgt>
<wgt id='1885'> -7.4711066e+01 </wgt>
<wgt id='1886'> -7.4951101e+01 </wgt>
<wgt id='1887'> -7.4720122e+01 </wgt>
<wgt id='1888'> -7.4773982e+01 </wgt>
<wgt id='1889'> -7.4714515e+01 </wgt>
<wgt id='1890'> -7.4801117e+01 </wgt>
<wgt id='1891'> -7.4768019e+01 </wgt>
<wgt id='1892'> -7.4821743e+01 </wgt>
<wgt id='1893'> -7.4734168e+01 </wgt>
<wgt id='1894'> -7.4670134e+01 </wgt>
<wgt id='1895'> -7.4685530e+01 </wgt>
<wgt id='1896'> -7.4680866e+01 </wgt>
<wgt id='1897'> -7.4709557e+01 </wgt>
<wgt id='1898'> -7.4813474e+01 </wgt>
<wgt id='1899'> -7.4749200e+01 </wgt>
<wgt id='1900'> -7.4720469e+01 </wgt>
<wgt id='1901'> -7.4726383e+01 </wgt>
<wgt id='1902'> -7.4687182e+01 </wgt>
<wgt id='1903'> -7.4814386e+01 </wgt>
<wgt id='1904'> -7.4701745e+01 </wgt>
<wgt id='1905'> -7.4786730e+01 </wgt>
<wgt id='1906'> -7.4762660e+01 </wgt>
<wgt id='1907'> -7.4759349e+01 </wgt>
<wgt id='1908'> -7.4769079e+01 </wgt>
<wgt id='1909'> -7.4751495e+01 </wgt>
<wgt id='1910'> -7.4767827e+01 </wgt>
<wgt id='1911'> -7.4743411e+01 </wgt>
<wgt id='1912'> -7.4753601e+01 </wgt>
<wgt id='1913'> -7.4773051e+01 </wgt>
<wgt id='1914'> -7.4762607e+01 </wgt>
<wgt id='1915'> -7.4770943e+01 </wgt>
<wgt id='1916'> -7.4774318e+01 </wgt>
<wgt id='1917'> -7.4747686e+01 </wgt>
<wgt id='1918'> -7.4747350e+01 </wgt>
<wgt id='1919'> -7.4766367e+01 </wgt>
<wgt id='1920'> -7.4740944e+01 </wgt>
<wgt id='1921'> -7.4750062e+01 </wgt>
<wgt id='1922'> -7.4742901e+01 </wgt>
<wgt id='1923'> -7.4777036e+01 </wgt>
<wgt id='1924'> -7.4752346e+01 </wgt>
<wgt id='1925'> -7.4735589e+01 </wgt>
<wgt id='1926'> -7.4808650e+01 </wgt>
<wgt id='1927'> -7.4770745e+01 </wgt>
<wgt id='1928'> -7.4720136e+01 </wgt>
<wgt id='1929'> -7.4762313e+01 </wgt>
<wgt id='1930'> -7.4758452e+01 </wgt>
<wgt id='1931'> -7.4793950e+01 </wgt>
<wgt id='1932'> -7.4767689e+01 </wgt>
<wgt id='1933'> -7.4786815e+01 </wgt>
<wgt id='1934'> -7.4746592e+01 </wgt>
<wgt id='1935'> -7.4754091e+01 </wgt>
<wgt id='1936'> -7.4789007e+01 </wgt>
<wgt id='1937'> -7.4781142e+01 </wgt>
<wgt id='1938'> -7.4735935e+01 </wgt>
<wgt id='1939'> -7.4721559e+01 </wgt>
<wgt id='1940'> -7.4749663e+01 </wgt>
<wgt id='1941'> -7.4805704e+01 </wgt>
<wgt id='1942'> -7.4703545e+01 </wgt>
<wgt id='1943'> -7.4719114e+01 </wgt>
<wgt id='1944'> -7.4718090e+01 </wgt>
<wgt id='1945'> -7.4750869e+01 </wgt>
<wgt id='1946'> -7.4721491e+01 </wgt>
<wgt id='1947'> -7.4729122e+01 </wgt>
<wgt id='1948'> -7.4751756e+01 </wgt>
<wgt id='1949'> -7.4715663e+01 </wgt>
<wgt id='1950'> -7.4761348e+01 </wgt>
<wgt id='1951'> -7.4756567e+01 </wgt>
<wgt id='1952'> -7.4762253e+01 </wgt>
<wgt id='1953'> -7.4745302e+01 </wgt>
<wgt id='1954'> -7.4754541e+01 </wgt>
<wgt id='1955'> -7.4762300e+01 </wgt>
<wgt id='1956'> -7.4753554e+01 </wgt>
<wgt id='1957'> -7.4757739e+01 </wgt>
<wgt id='1958'> -7.4754888e+01 </wgt>
<wgt id='1959'> -7.4755015e+01 </wgt>
<wgt id='1960'> -7.4756190e+01 </wgt>
<wgt id='1961'> -7.4754505e+01 </wgt>
<wgt id='1962'> -7.4758438e+01 </wgt>
</rwgt>
</event>
<event npLO=" -1 " npNLO=" 0 ">
 7      0 +1.5146096e+02 4.35819940e+01 7.54677110e-03 1.16487040e-01
        1 -1    0    0  501    0 +0.0000000000e+00 +0.0000000000e+00 +5.9219045000e+01 5.9219045000e+01 0.0000000000e+00 0.0000e+00 9.0000e+00
       21 -1    0    0  502  501 +0.0000000000e+00 +0.0000000000e+00 -1.5146687000e+02 1.5146687000e+02 0.0000000000e+00 0.0000e+00 9.0000e+00
       23  2    1    2    0    0 +3.6482688000e+00 -3.5537347000e+01 +1.2338877000e+01 1.0016627000e+02 9.2762177000e+01 0.0000e+00 0.0000e+00
       15  1    3    3    0    0 -1.4103482000e+01 -3.5944587000e+01 +1.7245460000e+01 4.2325940000e+01 1.7770000000e+00 0.0000e+00 9.0000e+00
      -15  1    3    3    0    0 +2.5805900000e+01 +2.0830643000e+01 -1.1119970000e+01 3.5023872000e+01 1.7770000000e+00 0.0000e+00 9.0000e+00
       22  1    3    3    0    0 -8.0541489000e+00 -2.0423403000e+01 +6.2133864000e+00 2.2816460000e+01 0.0000000000e+00 0.0000e+00 9.0000e+00
        1  1    1    2  502    0 -3.6482688000e+00 +3.5537347000e+01 -1.0458670000e+02 1.1051964000e+02 0.0000000000e+00 0.0000e+00 9.0000e+00
#aMCatNLO 2  0  0  2  1 0.36962748E+02 0.00000000E+00 -9  6  0 0.00000000E+00 0.00000000E+00 0.00000000E+00 0.00000000E+00 0.00000000E+00
<rwgt>
<wgt id='1001'> +1.5146000e+02 </wgt>
<wgt id='1002'> +1.5146000e+02 </wgt>
<wgt id='1003'> +1.4112000e+02 </wgt>
<wgt id='1004'> +1.5445000e+02 </wgt>
<wgt id='1005'> +1.5230000e+02 </wgt>
<wgt id='1006'> +1.5263000e+02 </wgt>
<wgt id='1007'> +1.3438000e+02 </wgt>
<wgt id='1008'> +1.4871000e+02 </wgt>
<wgt id='1009'> +1.5299000e+02 </wgt>
<wgt id='1010'> +1.5143000e+02 </wgt>
<wgt id='1011'> +1.5180000e+02 </wgt>
<wgt id='1012'> +1.4502000e+02 </wgt>
<wgt id='1013'> +1.4793000e+02 </wgt>
<wgt id='1014'> +1.5372000e+02 </wgt>
<wgt id='1015'> +1.5318000e+02 </wgt>
<wgt id='1016'> +1.4884000e+02 </wgt>
<wgt id='1017'> +1.5182000e+02 </wgt>
<wgt id='1018'> +1.5012000e+02 </wgt>
<wgt id='1019'> +1.4832000e+02 </wgt>
<wgt id='1020'> +1.4683000e+02 </wgt>
<wgt id='1021'> +1.5498000e+02 </wgt>
<wgt id='1022'> +1.5478000e+02 </wgt>
<wgt id='1023'> +1.5696000e+02 </wgt>
<wgt id='1024'> +1.5027000e+02 </wgt>
<wgt id='1025'> +1.5888000e+02 </wgt>
<wgt id='1026'> +1.5157000e+02 </wgt>
<wgt id='1027'> +1.5487000e+02 </wgt>
<wgt id='1028'> +1.4760000e+02 </wgt>
<wgt id='1029'> +1.5122000e+02 </wgt>
<wgt id='1030'> +1.5146000e+02 </wgt>
<wgt id='1031'> +1.5056000e+02 </wgt>
<wgt id='1032'> +1.5630000e+02 </wgt>
<wgt id='1033'> +1.5293000e+02 </wgt>
<wgt id='1034'> +1.4497000e+02 </wgt>
<wgt id='1035'> +1.5319000e+02 </wgt>
<wgt id='1036'> +1.5068000e+02 </wgt>
<wgt id='1037'> +1.5718000e+02 </wgt>
<wgt id='1038'> +1.5317000e+02 </wgt>
<wgt id='1039'> +1.5240000e+02 </wgt>
<wgt id='1040'> +1.4658000e+02 </wgt>
<wgt id='1041'> +1.5016000e+02 </wgt>
<wgt id='1042'> +1.5380000e+02 </wgt>
<wgt id='1043'> +1.5677000e+02 </wgt>
<wgt id='1044'> +1.5505000e+02 </wgt>
<wgt id='1045'> +1.5198000e+02 </wgt>
<wgt id='1046'> +1.5014000e+02 </wgt>
<wgt id='1047'> +1.5236000e+02 </wgt>
<wgt id='1048'> +1.5423000e+02 </wgt>
<wgt id='1049'> +1.4993000e+02 </wgt>
<wgt id='1050'> +1.4975000e+02 </wgt>
<wgt id='1051'> +1.5436000e+02 </wgt>
<wgt id='1052'> +1.5347000e+02 </wgt>
<wgt id='1053'> +1.5312000e+02 </wgt>
<wgt id='1054'> +1.4775000e+02 </wgt>
<wgt id='1055'> +1.4781000e+02 </wgt>
<wgt id='1056'> +1.5219000e+02 </wgt>
<wgt id='1057'> +1.5085000e+02 </wgt>
<wgt id='1058'> +1.4799000e+02 </wgt>
<wgt id='1059'> +1.5610000e+02 </wgt>
<wgt id='1060'> +1.5060000e+02 </wgt>
<wgt id='1061'> +1.5332000e+02 </wgt>
<wgt id='1062'> +1.5320000e+02 </wgt>
<wgt id='1063'> +1.5364000e+02 </wgt>
<wgt id='1064'> +1.5360000e+02 </wgt>
<wgt id='1065'> +1.5688000e+02 </wgt>
<wgt id='1066'> +1.4919000e+02 </wgt>
<wgt id='1067'> +1.5485000e+02 </wgt>
<wgt id='1068'> +1.5139000e+02 </wgt>
<wgt id='1069'> +1.5091000e+02 </wgt>
<wgt id='1070'> +1.5105000e+02 </wgt>
<wgt id='1071'> +1.4727000e+02 </wgt>
<wgt id='1072'> +1.4949000e+02 </wgt>
<wgt id='1073'> +1.5347000e+02 </wgt>
<wgt id='1074'> +1.4676000e+02 </wgt>
<wgt id='1075'> +1.3964000e+02 </wgt>
<wgt id='1076'> +1.5085000e+02 </wgt>
<wgt id='1077'> +1.5530000e+02 </wgt>
<wgt id='1078'> +1.4426000e+02 </wgt>
<wgt id='1079'> +1.5060000e+02 </wgt>
<wgt id='1080'> +1.5662000e+02 </wgt>
<wgt id='1081'> +1.4925000e+02 </wgt>
<wgt id='1082'> +1.5148000e+02 </wgt>
<wgt id='1083'> +1.5319000e+02 </wgt>
<wgt id='1084'> +1.5336000e+02 </wgt>
<wgt id='1085'> +1.5181000e+02 </wgt>
<wgt id='1086'> +1.5362000e+02 </wgt>
<wgt id='1087'> +1.5049000e+02 </wgt>
<wgt id='1088'> +1.5275000e+02 </wgt>
<wgt id='1089'> +1.5023000e+02 </wgt>
<wgt id='1090'> +1.5435000e+02 </wgt>
<wgt id='1091'> +1.5460000e+02 </wgt>
<wgt id='1092'> +1.5182000e+02 </wgt>
<wgt id='1093'> +1.5401000e+02 </wgt>
<wgt id='1094'> +1.4963000e+02 </wgt>
<wgt id='1095'> +1.5119000e+02 </wgt>
<wgt id='1096'> +1.5320000e+02 </wgt>
<wgt id='1097'> +1.4777000e+02 </wgt>
<wgt id='1098'> +1.5249000e+02 </wgt>
<wgt id='1099'> +1.5370000e+02 </wgt>
<wgt id='1100'> +1.5396000e+02 </wgt>
<wgt id='1101'> +1.5653000e+02 </wgt>
<wgt id='1102'> +1.5090000e+02 </wgt>
<wgt id='1103'> +1.5068000e+02 </wgt>
<wgt id='1104'> +1.5225000e+02 </wgt>
<wgt id='1105'> +1.5146096e+02 </wgt>
<wgt id='1106'> +6.8662793e+01 </wgt>
<wgt id='1107'> +8.4460103e+01 </wgt>
<wgt id='1108'> +7.8580083e+01 </wgt>
<wgt id='1109'> +7.1246452e+01 </wgt>
<wgt id='1110'> +8.7638186e+01 </wgt>
<wgt id='1111'> +7.1784913e+01 </wgt>
<wgt id='1112'> +6.5085454e+01 </wgt>
<wgt id='1113'> +8.0059722e+01 </wgt>
<wgt id='1114'> +7.8435745e+01 </wgt>
<wgt id='1115'> +8.0575041e+01 </wgt>
<wgt id='1116'> +7.8647580e+01 </wgt>
<wgt id='1117'> +7.6689612e+01 </wgt>
<wgt id='1118'> +7.7303684e+01 </wgt>
<wgt id='1119'> +7.9271458e+01 </wgt>
<wgt id='1120'> +8.1286165e+01 </wgt>
<wgt id='1121'> +7.8922864e+01 </wgt>
<wgt id='1122'> +7.5827619e+01 </wgt>
<wgt id='1123'> +7.8465569e+01 </wgt>
<wgt id='1124'> +8.0007848e+01 </wgt>
<wgt id='1125'> +7.8554050e+01 </wgt>
<wgt id='1126'> +7.6986057e+01 </wgt>
<wgt id='1127'> +7.7854434e+01 </wgt>
<wgt id='1128'> +7.6124592e+01 </wgt>
<wgt id='1129'> +8.0424851e+01 </wgt>
<wgt id='1130'> +8.0660642e+01 </wgt>
<wgt id='1131'> +8.1428244e+01 </wgt>
<wgt id='1132'> +7.7963969e+01 </wgt>
<wgt id='1133'> +7.8278995e+01 </wgt>
<wgt id='1134'> +7.7223699e+01 </wgt>
<wgt id='1135'> +7.6403862e+01 </wgt>
<wgt id='1136'> +7.8440888e+01 </wgt>
<wgt id='1137'> +8.0274308e+01 </wgt>
<wgt id='1138'> +7.7039649e+01 </wgt>
<wgt id='1139'> +7.5647459e+01 </wgt>
<wgt id='1140'> +7.7492450e+01 </wgt>
<wgt id='1141'> +8.0490589e+01 </wgt>
<wgt id='1142'> +7.7506928e+01 </wgt>
<wgt id='1143'> +8.0088923e+01 </wgt>
<wgt id='1144'> +8.0917826e+01 </wgt>
<wgt id='1145'> +7.8848175e+01 </wgt>
<wgt id='1146'> +7.8278996e+01 </wgt>
<wgt id='1147'> +7.8803875e+01 </wgt>
<wgt id='1148'> +7.6245847e+01 </wgt>
<wgt id='1149'> +8.0094864e+01 </wgt>
<wgt id='1150'> +7.6505594e+01 </wgt>
<wgt id='1151'> +7.8788169e+01 </wgt>
<wgt id='1152'> +7.7572237e+01 </wgt>
<wgt id='1153'> +7.8861819e+01 </wgt>
<wgt id='1154'> +7.6477747e+01 </wgt>
<wgt id='1155'> +7.8026148e+01 </wgt>
<wgt id='1156'> +7.7816065e+01 </wgt>
<wgt id='1157'> +7.9980359e+01 </wgt>
<wgt id='1158'> +7.9139507e+01 </wgt>
<wgt id='1159'> +7.9209699e+01 </wgt>
<wgt id='1160'> +7.8998661e+01 </wgt>
<wgt id='1161'> +7.5768512e+01 </wgt>
<wgt id='1162'> +7.5500698e+01 </wgt>
<wgt id='1163'> +8.1076479e+01 </wgt>
<wgt id='1164'> +8.0943899e+01 </wgt>
<wgt id='1165'> +7.9100118e+01 </wgt>
<wgt id='1166'> +7.7633920e+01 </wgt>
<wgt id='1167'> +7.8107552e+01 </wgt>
<wgt id='1168'> +8.0344530e+01 </wgt>
<wgt id='1169'> +7.4872647e+01 </wgt>
<wgt id='1170'> +7.9409802e+01 </wgt>
<wgt id='1171'> +8.0251244e+01 </wgt>
<wgt id='1172'> +7.7120624e+01 </wgt>
<wgt id='1173'> +7.9183705e+01 </wgt>
<wgt id='1174'> +7.8782107e+01 </wgt>
<wgt id='1175'> +7.8413952e+01 </wgt>
<wgt id='1176'> +7.9044602e+01 </wgt>
<wgt id='1177'> +7.8138067e+01 </wgt>
<wgt id='1178'> +7.5783750e+01 </wgt>
<wgt id='1179'> +7.8484323e+01 </wgt>
<wgt id='1180'> +7.7577323e+01 </wgt>
<wgt id='1181'> +7.8353573e+01 </wgt>
<wgt id='1182'> +8.0814089e+01 </wgt>
<wgt id='1183'> +7.8095415e+01 </wgt>
<wgt id='1184'> +7.7402293e+01 </wgt>
<wgt id='1185'> +7.9907867e+01 </wgt>
<wgt id='1186'> +8.4125374e+01 </wgt>
<wgt id='1187'> +7.7362241e+01 </wgt>
<wgt id='1188'> +7.7996078e+01 </wgt>
<wgt id='1189'> +7.8370703e+01 </wgt>
<wgt id='1190'> +7.9413541e+01 </wgt>
<wgt id='1191'> +7.6076168e+01 </wgt>
<wgt id='1192'> +7.8652556e+01 </wgt>
<wgt id='1193'> +7.7920884e+01 </wgt>
<wgt id='1194'> +7.8485163e+01 </wgt>
<wgt id='1195'> +7.6895982e+01 </wgt>
<wgt id='1196'> +8.0660642e+01 </wgt>
<wgt id='1197'> +7.8260015e+01 </wgt>
<wgt id='1198'> +7.7905797e+01 </wgt>
<wgt id='1199'> +7.8255961e+01 </wgt>
<wgt id='1200'> +7.9972461e+01 </wgt>
<wgt id='1201'> +7.9134387e+01 </wgt>
<wgt id='1202'> +8.0359725e+01 </wgt>
<wgt id='1203'> +7.5794871e+01 </wgt>
<wgt id='1204'> +7.7783069e+01 </wgt>
<wgt id='1205'> +7.7481695e+01 </wgt>
<wgt id='1206'> +7.7871497e+01 </wgt>
<wgt id='1207'> +7.8437075e+01 </wgt>
<wgt id='1208'> +8.1029711e+01 </wgt>
<wgt id='1209'> +7.7500069e+01 </wgt>
<wgt id='1210'> +7.6979708e+01 </wgt>
<wgt id='1211'> +7.7706512e+01 </wgt>
<wgt id='1212'> +7.8272045e+01 </wgt>
<wgt id='1213'> +7.5427168e+01 </wgt>
<wgt id='1214'> +7.8837323e+01 </wgt>
<wgt id='1215'> +7.6645185e+01 </wgt>
<wgt id='1216'> +7.8228961e+01 </wgt>
<wgt id='1217'> +7.8269736e+01 </wgt>
<wgt id='1218'> +7.8275165e+01 </wgt>
<wgt id='1219'> +7.8285618e+01 </wgt>
<wgt id='1220'> +7.8534770e+01 </wgt>
<wgt id='1221'> +7.8503206e+01 </wgt>
<wgt id='1222'> +7.8027423e+01 </wgt>
<wgt id='1223'> +7.8547863e+01 </wgt>
<wgt id='1224'> +7.8266929e+01 </wgt>
<wgt id='1225'> +7.8527641e+01 </wgt>
<wgt id='1226'> +7.7726464e+01 </wgt>
<wgt id='1227'> +7.8102523e+01 </wgt>
<wgt id='1228'> +7.8590960e+01 </wgt>
<wgt id='1229'> +7.8248399e+01 </wgt>
<wgt id='1230'> +7.8508721e+01 </wgt>
<wgt id='1231'> +7.7968884e+01 </wgt>
<wgt id='1232'> +7.8769855e+01 </wgt>
<wgt id='1233'> +7.8227309e+01 </wgt>
<wgt id='1234'> +7.8560237e+01 </wgt>
<wgt id='1235'> +7.7936404e+01 </wgt>
<wgt id='1236'> +7.7790327e+01 </wgt>
<wgt id='1237'> +7.8463416e+01 </wgt>
<wgt id='1238'> +7.8211783e+01 </wgt>
<wgt id='1239'> +7.7879554e+01 </wgt>
<wgt id='1240'> +7.8665149e+01 </wgt>
<wgt id='1241'> +7.8039407e+01 </wgt>
<wgt id='1242'> +7.8359960e+01 </wgt>
<wgt id='1243'> +7.7983008e+01 </wgt>
<wgt id='1244'> +7.8049745e+01 </wgt>
<wgt id='1245'> +7.8673996e+01 </wgt>
<wgt id='1246'> +7.8621438e+01 </wgt>
<wgt id='1247'> +7.7873435e+01 </wgt>
<wgt id='1248'> +7.8444401e+01 </wgt>
<wgt id='1249'> +7.8045350e+01 </wgt>
<wgt id='1250'> +7.8159316e+01 </wgt>
<wgt id='1251'> +7.8256349e+01 </wgt>
<wgt id='1252'> +7.8181760e+01 </wgt>
<wgt id='1253'> +7.8119480e+01 </wgt>
<wgt id='1254'> +7.8200552e+01 </wgt>
<wgt id='1255'> +7.8252101e+01 </wgt>
<wgt id='1256'> +7.8144561e+01 </wgt>
<wgt id='1257'> +7.8288725e+01 </wgt>
<wgt id='1258'> +7.8127687e+01 </wgt>
<wgt id='1259'> +7.8249685e+01 </wgt>
<wgt id='1260'> +7.8247302e+01 </wgt>
<wgt id='1261'> +7.8231593e+01 </wgt>
<wgt id='1262'> +7.8242277e+01 </wgt>
<wgt id='1263'> +7.8225913e+01 </wgt>
<wgt id='1264'> +7.8221647e+01 </wgt>
<wgt id='1265'> +7.8169931e+01 </wgt>
<wgt id='1266'> +7.8236535e+01 </wgt>
<wgt id='1267'> +7.8263061e+01 </wgt>
<wgt id='1268'> +7.8151894e+01 </wgt>
<wgt id='1269'> +7.8197325e+01 </wgt>
<wgt id='1270'> +7.8116386e+01 </wgt>
<wgt id='1271'> +7.8242892e+01 </wgt>
<wgt id='1272'> +7.8220084e+01 </wgt>
<wgt id='1273'> +7.8183440e+01 </wgt>
<wgt id='1274'> +7.8174359e+01 </wgt>
<wgt id='1275'> +7.8221031e+01 </wgt>
<wgt id='1276'> +7.8266833e+01 </wgt>
<wgt id='1277'> +7.8310992e+01 </wgt>
<wgt id='1278'> +7.8347221e+01 </wgt>
<wgt id='1279'> +7.8294439e+01 </wgt>
<wgt id='1280'> +7.8257587e+01 </wgt>
<wgt id='1281'> +7.8283386e+01 </wgt>
<wgt id='1282'> +7.8259076e+01 </wgt>
<wgt id='1283'> +7.8218800e+01 </wgt>
<wgt id='1284'> +7.8214402e+01 </wgt>
<wgt id='1285'> +7.8156212e+01 </wgt>
<wgt id='1286'> +7.8283386e+01 </wgt>
<wgt id='1287'> +7.8207271e+01 </wgt>
<wgt id='1288'> +7.8210866e+01 </wgt>
<wgt id='1289'> +7.8256997e+01 </wgt>
<wgt id='1290'> +7.8223240e+01 </wgt>
<wgt id='1291'> +7.8293044e+01 </wgt>
<wgt id='1292'> +7.8166089e+01 </wgt>
<wgt id='1293'> +7.8291918e+01 </wgt>
<wgt id='1294'> +7.8214604e+01 </wgt>
<wgt id='1295'> +7.8265979e+01 </wgt>
<wgt id='1296'> +7.8204115e+01 </wgt>
<wgt id='1297'> +7.8177810e+01 </wgt>
<wgt id='1298'> +7.8216474e+01 </wgt>
<wgt id='1299'> +7.8216829e+01 </wgt>
<wgt id='1300'> +7.8266506e+01 </wgt>
<wgt id='1301'> +7.8292267e+01 </wgt>
<wgt id='1302'> +7.8188361e+01 </wgt>
<wgt id='1303'> +7.8250520e+01 </wgt>
<wgt id='1304'> +7.8205444e+01 </wgt>
<wgt id='1305'> +7.8210198e+01 </wgt>
<wgt id='1306'> +7.8218920e+01 </wgt>
<wgt id='1307'> +7.8227196e+01 </wgt>
<wgt id='1308'> +7.8287382e+01 </wgt>
<wgt id='1309'> +7.8215725e+01 </wgt>
<wgt id='1310'> +7.8237290e+01 </wgt>
<wgt id='1311'> +7.8217277e+01 </wgt>
<wgt id='1312'> +7.8232699e+01 </wgt>
<wgt id='1313'> +7.8218405e+01 </wgt>
<wgt id='1314'> +7.8262992e+01 </wgt>
<wgt id='1315'> +7.8230021e+01 </wgt>
<wgt id='1316'> +7.8226752e+01 </wgt>
<wgt id='1317'> +7.7353876e+01 </wgt>
<wgt id='1318'> +7.9281556e+01 </wgt>
<wgt id='1319'> +8.2476873e+01 </wgt>
<wgt id='1320'> +7.6072472e+01 </wgt>
<wgt id='1321'> +7.6725737e+01 </wgt>
<wgt id='1322'> +7.5760649e+01 </wgt>
<wgt id='1323'> +7.7006654e+01 </wgt>
<wgt id='1324'> +7.5408416e+01 </wgt>
<wgt id='1325'> +7.6813900e+01 </wgt>
<wgt id='1326'> +7.5732572e+01 </wgt>
<wgt id='1327'> +7.7165553e+01 </wgt>
<wgt id='1328'> +7.5898420e+01 </wgt>
<wgt id='1329'> +7.5128623e+01 </wgt>
<wgt id='1330'> +7.6526429e+01 </wgt>
<wgt id='1331'> +7.6741802e+01 </wgt>
<wgt id='1332'> +7.5773754e+01 </wgt>
<wgt id='1333'> +7.4413020e+01 </wgt>
<wgt id='1334'> +7.6617076e+01 </wgt>
<wgt id='1335'> +7.7452375e+01 </wgt>
<wgt id='1336'> +7.4495840e+01 </wgt>
<wgt id='1337'> +7.6806072e+01 </wgt>
<wgt id='1338'> +7.5274038e+01 </wgt>
<wgt id='1339'> +7.6847106e+01 </wgt>
<wgt id='1340'> +7.5208308e+01 </wgt>
<wgt id='1341'> +7.6396739e+01 </wgt>
<wgt id='1342'> +7.5377118e+01 </wgt>
<wgt id='1343'> +7.6842171e+01 </wgt>
<wgt id='1344'> +7.5201447e+01 </wgt>
<wgt id='1345'> +7.6118166e+01 </wgt>
<wgt id='1346'> +7.6027162e+01 </wgt>
<wgt id='1347'> +7.5243986e+01 </wgt>
<wgt id='1348'> +7.7119659e+01 </wgt>
<wgt id='1349'> +7.5933597e+01 </wgt>
<wgt id='1350'> +7.6120409e+01 </wgt>
<wgt id='1351'> +7.6310683e+01 </wgt>
<wgt id='1352'> +7.5762431e+01 </wgt>
<wgt id='1353'> +7.5836458e+01 </wgt>
<wgt id='1354'> +7.6575683e+01 </wgt>
<wgt id='1355'> +7.6559755e+01 </wgt>
<wgt id='1356'> +7.5665832e+01 </wgt>
<wgt id='1357'> +7.6445763e+01 </wgt>
<wgt id='1358'> +7.5250892e+01 </wgt>
<wgt id='1359'> +7.5509216e+01 </wgt>
<wgt id='1360'> +7.6182997e+01 </wgt>
<wgt id='1361'> +7.6143873e+01 </wgt>
<wgt id='1362'> +7.6164381e+01 </wgt>
<wgt id='1363'> +7.6667465e+01 </wgt>
<wgt id='1364'> +7.5586316e+01 </wgt>
<wgt id='1365'> +7.5203377e+01 </wgt>
<wgt id='1366'> +7.5674887e+01 </wgt>
<wgt id='1367'> +7.5000388e+01 </wgt>
<wgt id='1368'> +7.5832236e+01 </wgt>
<wgt id='1369'> +7.5484976e+01 </wgt>
<wgt id='1370'> +7.5012856e+01 </wgt>
<wgt id='1371'> +7.5336078e+01 </wgt>
<wgt id='1372'> +7.5568348e+01 </wgt>
<wgt id='1373'> +7.4904688e+01 </wgt>
<wgt id='1374'> +7.6296580e+01 </wgt>
<wgt id='1375'> +7.5059240e+01 </wgt>
<wgt id='1376'> +7.7645254e+01 </wgt>
<wgt id='1377'> +7.4796863e+01 </wgt>
<wgt id='1378'> +7.7234573e+01 </wgt>
<wgt id='1379'> +7.6440567e+01 </wgt>
<wgt id='1380'> +7.5149058e+01 </wgt>
<wgt id='1381'> +7.7639184e+01 </wgt>
<wgt id='1382'> +6.8748563e+01 </wgt>
<wgt id='1383'> +7.6473899e+01 </wgt>
<wgt id='1384'> +7.7431925e+01 </wgt>
<wgt id='1385'> +7.8181466e+01 </wgt>
<wgt id='1386'> +7.8395360e+01 </wgt>
<wgt id='1387'> +7.7939012e+01 </wgt>
<wgt id='1388'> +7.7902163e+01 </wgt>
<wgt id='1389'> +7.8656172e+01 </wgt>
<wgt id='1390'> +7.8301916e+01 </wgt>
<wgt id='1391'> +7.8036157e+01 </wgt>
<wgt id='1392'> +7.7841119e+01 </wgt>
<wgt id='1393'> +7.8418089e+01 </wgt>
<wgt id='1394'> +7.8127604e+01 </wgt>
<wgt id='1395'> +7.8244593e+01 </wgt>
<wgt id='1396'> +7.7890148e+01 </wgt>
<wgt id='1397'> +7.8325270e+01 </wgt>
<wgt id='1398'> +7.7960403e+01 </wgt>
<wgt id='1399'> +7.8337672e+01 </wgt>
<wgt id='1400'> +7.7788632e+01 </wgt>
<wgt id='1401'> +7.8476480e+01 </wgt>
<wgt id='1402'> +7.8197560e+01 </wgt>
<wgt id='1403'> +7.8171492e+01 </wgt>
<wgt id='1404'> +7.7685856e+01 </wgt>
<wgt id='1405'> +7.8438409e+01 </wgt>
<wgt id='1406'> +7.7900648e+01 </wgt>
<wgt id='1407'> +7.8680575e+01 </wgt>
<wgt id='1408'> +7.7891333e+01 </wgt>
<wgt id='1409'> +7.8765611e+01 </wgt>
<wgt id='1410'> +7.7920241e+01 </wgt>
<wgt id='1411'> +7.8691530e+01 </wgt>
<wgt id='1412'> +7.8725456e+01 </wgt>
<wgt id='1413'> +7.7511408e+01 </wgt>
<wgt id='1414'> +7.8447045e+01 </wgt>
<wgt id='1415'> +7.8002890e+01 </wgt>
<wgt id='1416'> +7.7895766e+01 </wgt>
<wgt id='1417'> +7.8333025e+01 </wgt>
<wgt id='1418'> +7.8045891e+01 </wgt>
<wgt id='1419'> +7.8410089e+01 </wgt>
<wgt id='1420'> +7.7484602e+01 </wgt>
<wgt id='1421'> +7.8707350e+01 </wgt>
<wgt id='1422'> +7.8511014e+01 </wgt>
<wgt id='1423'> +7.7806112e+01 </wgt>
<wgt id='1424'> +7.8554556e+01 </wgt>
<wgt id='1425'> +7.7518164e+01 </wgt>
<wgt id='1426'> +7.8690200e+01 </wgt>
<wgt id='1427'> +7.8284817e+01 </wgt>
<wgt id='1428'> +7.8169792e+01 </wgt>
<wgt id='1429'> +7.7996183e+01 </wgt>
<wgt id='1430'> +7.8453659e+01 </wgt>
<wgt id='1431'> +7.8639006e+01 </wgt>
<wgt id='1432'> +7.8484813e+01 </wgt>
<wgt id='1433'> +7.8726659e+01 </wgt>
<wgt id='1434'> +7.8435959e+01 </wgt>
<wgt id='1435'> +7.8092767e+01 </wgt>
<wgt id='1436'> +7.5848582e+01 </wgt>
<wgt id='1437'> +7.5828789e+01 </wgt>
<wgt id='1438'> +7.5920724e+01 </wgt>
<wgt id='1439'> +7.5850117e+01 </wgt>
<wgt id='1440'> +7.5788823e+01 </wgt>
<wgt id='1441'> +7.6148319e+01 </wgt>
<wgt id='1442'> +7.5716146e+01 </wgt>
<wgt id='1443'> +7.5711953e+01 </wgt>
<wgt id='1444'> +7.5626035e+01 </wgt>
<wgt id='1445'> +7.5556162e+01 </wgt>
<wgt id='1446'> +7.5921164e+01 </wgt>
<wgt id='1447'> +7.5799017e+01 </wgt>
<wgt id='1448'> +7.5707223e+01 </wgt>
<wgt id='1449'> +7.5737116e+01 </wgt>
<wgt id='1450'> +7.5856399e+01 </wgt>
<wgt id='1451'> +7.5873972e+01 </wgt>
<wgt id='1452'> +7.5786994e+01 </wgt>
<wgt id='1453'> +7.6054403e+01 </wgt>
<wgt id='1454'> +7.5992992e+01 </wgt>
<wgt id='1455'> +7.5957613e+01 </wgt>
<wgt id='1456'> +7.5907748e+01 </wgt>
<wgt id='1457'> +7.6139459e+01 </wgt>
<wgt id='1458'> +7.5819797e+01 </wgt>
<wgt id='1459'> +7.5752703e+01 </wgt>
<wgt id='1460'> +7.5893266e+01 </wgt>
<wgt id='1461'> +7.5725222e+01 </wgt>
<wgt id='1462'> +7.5539485e+01 </wgt>
<wgt id='1463'> +7.6251662e+01 </wgt>
<wgt id='1464'> +7.6076301e+01 </wgt>
<wgt id='1465'> +7.4295873e+01 </wgt>
<wgt id='1466'> +7.6091721e+01 </wgt>
<wgt id='1467'> +7.5986318e+01 </wgt>
<wgt id='1468'> +7.6348879e+01 </wgt>
<wgt id='1469'> +7.6980587e+01 </wgt>
<wgt id='1470'> +7.5784576e+01 </wgt>
<wgt id='1471'> +7.5778411e+01 </wgt>
<wgt id='1472'> +7.5781369e+01 </wgt>
<wgt id='1473'> +7.6228223e+01 </wgt>
<wgt id='1474'> +7.6448697e+01 </wgt>
<wgt id='1475'> +7.5879357e+01 </wgt>
<wgt id='1476'> +7.6683068e+01 </wgt>
<wgt id='1477'> +7.5619073e+01 </wgt>
<wgt id='1478'> +7.5467833e+01 </wgt>
<wgt id='1479'> +7.6153923e+01 </wgt>
<wgt id='1480'> +7.5640693e+01 </wgt>
<wgt id='1481'> +7.6075984e+01 </wgt>
<wgt id='1482'> +7.6046441e+01 </wgt>
<wgt id='1483'> +7.6203935e+01 </wgt>
<wgt id='1484'> +7.6479889e+01 </wgt>
<wgt id='1485'> +7.5819863e+01 </wgt>
<wgt id='1486'> +7.6356821e+01 </wgt>
<wgt id='1487'> +7.5821483e+01 </wgt>
<wgt id='1488'> +7.6184093e+01 </wgt>
<wgt id='1489'> +7.6185377e+01 </wgt>
<wgt id='1490'> +7.6034176e+01 </wgt>
<wgt id='1491'> +7.6014917e+01 </wgt>
<wgt id='1492'> +7.6001131e+01 </wgt>
<wgt id='1493'> +7.6016453e+01 </wgt>
<wgt id='1494'> +7.5448049e+01 </wgt>
<wgt id='1495'> +7.6063943e+01 </wgt>
<wgt id='1496'> +7.5893031e+01 </wgt>
<wgt id='1497'> +7.6074090e+01 </wgt>
<wgt id='1498'> +7.6273657e+01 </wgt>
<wgt id='1499'> +7.5706541e+01 </wgt>
<wgt id='1500'> +7.6221228e+01 </wgt>
<wgt id='1501'> +7.6101004e+01 </wgt>
<wgt id='1502'> +7.6139839e+01 </wgt>
<wgt id='1503'> +7.6282387e+01 </wgt>
<wgt id='1504'> +7.5909150e+01 </wgt>
<wgt id='1505'> +7.6140855e+01 </wgt>
<wgt id='1506'> +7.6123145e+01 </wgt>
<wgt id='1507'> +7.6057627e+01 </wgt>
<wgt id='1508'> +7.6191107e+01 </wgt>
<wgt id='1509'> +7.6015758e+01 </wgt>
<wgt id='1510'> +7.6179448e+01 </wgt>
<wgt id='1511'> +7.6168087e+01 </wgt>
<wgt id='1512'> +7.6113843e+01 </wgt>
<wgt id='1513'> +7.6017560e+01 </wgt>
<wgt id='1514'> +7.6012464e+01 </wgt>
<wgt id='1515'> +7.6092690e+01 </wgt>
<wgt id='1516'> +7.6014904e+01 </wgt>
<wgt id='1517'> +7.6064046e+01 </wgt>
<wgt id='1518'> +7.5957206e+01 </wgt>
<wgt id='1519'> +7.6074160e+01 </wgt>
<wgt id='1520'> +7.6113608e+01 </wgt>
<wgt id='1521'> +7.6089125e+01 </wgt>
<wgt id='1522'> +7.6113395e+01 </wgt>
<wgt id='1523'> +7.6096862e+01 </wgt>
<wgt id='1524'> +7.6122694e+01 </wgt>
<wgt id='1525'> +7.6046706e+01 </wgt>
<wgt id='1526'> +7.6042327e+01 </wgt>
<wgt id='1527'> +7.6105316e+01 </wgt>
<wgt id='1528'> +7.6057617e+01 </wgt>
<wgt id='1529'> +7.6105126e+01 </wgt>
<wgt id='1530'> +7.6056742e+01 </wgt>
<wgt id='1531'> +7.6124824e+01 </wgt>
<wgt id='1532'> +7.6075176e+01 </wgt>
<wgt id='1533'> +7.6042492e+01 </wgt>
<wgt id='1534'> +7.6152976e+01 </wgt>
<wgt id='1535'> +7.6108374e+01 </wgt>
<wgt id='1536'> +7.6120216e+01 </wgt>
<wgt id='1537'> +7.6045790e+01 </wgt>
<wgt id='1538'> +7.6055156e+01 </wgt>
<wgt id='1539'> +7.6070955e+01 </wgt>
<wgt id='1540'> +7.6108018e+01 </wgt>
<wgt id='1541'> +7.6055088e+01 </wgt>
<wgt id='1542'> +7.6074638e+01 </wgt>
<wgt id='1543'> +7.6066570e+01 </wgt>
<wgt id='1544'> +7.6072913e+01 </wgt>
<wgt id='1545'> +7.6124747e+01 </wgt>
<wgt id='1546'> +7.6089869e+01 </wgt>
<wgt id='1547'> +7.6090697e+01 </wgt>
<wgt id='1548'> +7.6035866e+01 </wgt>
<wgt id='1549'> +7.6065978e+01 </wgt>
<wgt id='1550'> +7.6081016e+01 </wgt>
<wgt id='1551'> +7.6114828e+01 </wgt>
<wgt id='1552'> +7.6123917e+01 </wgt>
<wgt id='1553'> +7.6085987e+01 </wgt>
<wgt id='1554'> +7.6100201e+01 </wgt>
<wgt id='1555'> +7.6101504e+01 </wgt>
<wgt id='1556'> +7.6085903e+01 </wgt>
<wgt id='1557'> +7.6078900e+01 </wgt>
<wgt id='1558'> +7.6075943e+01 </wgt>
<wgt id='1559'> +7.6073196e+01 </wgt>
<wgt id='1560'> +7.6077859e+01 </wgt>
<wgt id='1561'> +7.6090134e+01 </wgt>
<wgt id='1562'> +7.6079044e+01 </wgt>
<wgt id='1563'> +7.6107463e+01 </wgt>
<wgt id='1564'> +7.6091521e+01 </wgt>
<wgt id='1565'> +7.6075128e+01 </wgt>
<wgt id='1566'> +7.6100172e+01 </wgt>
<wgt id='1567'> +7.5320666e+01 </wgt>
<wgt id='1568'> +7.6725800e+01 </wgt>
<wgt id='1569'> +7.6865689e+01 </wgt>
<wgt id='1570'> +7.7072921e+01 </wgt>
<wgt id='1571'> +7.6965488e+01 </wgt>
<wgt id='1572'> +7.6650155e+01 </wgt>
<wgt id='1573'> +7.7143845e+01 </wgt>
<wgt id='1574'> +7.7599062e+01 </wgt>
<wgt id='1575'> +7.6709055e+01 </wgt>
<wgt id='1576'> +7.6545431e+01 </wgt>
<wgt id='1577'> +7.6789276e+01 </wgt>
<wgt id='1578'> +7.6934785e+01 </wgt>
<wgt id='1579'> +7.6624945e+01 </wgt>
<wgt id='1580'> +7.7661102e+01 </wgt>
<wgt id='1581'> +7.6666809e+01 </wgt>
<wgt id='1582'> +7.6349002e+01 </wgt>
<wgt id='1583'> +7.6315549e+01 </wgt>
<wgt id='1584'> +7.7330118e+01 </wgt>
<wgt id='1585'> +7.7065469e+01 </wgt>
<wgt id='1586'> +7.6825709e+01 </wgt>
<wgt id='1587'> +7.7058999e+01 </wgt>
<wgt id='1588'> +7.6252266e+01 </wgt>
<wgt id='1589'> +7.6989736e+01 </wgt>
<wgt id='1590'> +7.6867334e+01 </wgt>
<wgt id='1591'> +7.6459365e+01 </wgt>
<wgt id='1592'> +7.6832124e+01 </wgt>
<wgt id='1593'> +7.6755439e+01 </wgt>
<wgt id='1594'> +7.6991255e+01 </wgt>
<wgt id='1595'> +7.6845773e+01 </wgt>
<wgt id='1596'> +7.6670528e+01 </wgt>
<wgt id='1597'> +7.7035366e+01 </wgt>
<wgt id='1598'> +7.6940421e+01 </wgt>
<wgt id='1599'> +7.6833333e+01 </wgt>
<wgt id='1600'> +7.6915395e+01 </wgt>
<wgt id='1601'> +7.6791183e+01 </wgt>
<wgt id='1602'> +7.7250821e+01 </wgt>
<wgt id='1603'> +7.6714689e+01 </wgt>
<wgt id='1604'> +7.7382633e+01 </wgt>
<wgt id='1605'> +7.6619436e+01 </wgt>
<wgt id='1606'> +7.7049904e+01 </wgt>
<wgt id='1607'> +7.6791590e+01 </wgt>
<wgt id='1608'> +7.6787677e+01 </wgt>
<wgt id='1609'> +7.6786888e+01 </wgt>
<wgt id='1610'> +7.6952738e+01 </wgt>
<wgt id='1611'> +7.6801216e+01 </wgt>
<wgt id='1612'> +7.6662109e+01 </wgt>
<wgt id='1613'> +7.6859124e+01 </wgt>
<wgt id='1614'> +7.6956611e+01 </wgt>
<wgt id='1615'> +7.6803183e+01 </wgt>
<wgt id='1616'> +7.6882451e+01 </wgt>
<wgt id='1617'> +7.6915742e+01 </wgt>
<wgt id='1618'> +7.6823335e+01 </wgt>
<wgt id='1619'> +7.6869657e+01 </wgt>
<wgt id='1620'> +7.6942305e+01 </wgt>
<wgt id='1621'> +7.6885742e+01 </wgt>
<wgt id='1622'> +7.6838526e+01 </wgt>
<wgt id='1623'> +7.6883913e+01 </wgt>
<wgt id='1624'> +7.6851752e+01 </wgt>
<wgt id='1625'> +7.6892117e+01 </wgt>
<wgt id='1626'> +7.6871009e+01 </wgt>
<wgt id='1627'> +7.6781983e+01 </wgt>
<wgt id='1628'> +7.6825663e+01 </wgt>
<wgt id='1629'> +7.6804101e+01 </wgt>
<wgt id='1630'> +7.6863039e+01 </wgt>
<wgt id='1631'> +7.6902936e+01 </wgt>
<wgt id='1632'> +7.6896585e+01 </wgt>
<wgt id='1633'> +7.6844201e+01 </wgt>
<wgt id='1634'> +7.6896792e+01 </wgt>
<wgt id='1635'> +7.6864425e+01 </wgt>
<wgt id='1636'> +7.6886617e+01 </wgt>
<wgt id='1637'> +7.6817902e+01 </wgt>
<wgt id='1638'> +7.6904970e+01 </wgt>
<wgt id='1639'> +7.6851789e+01 </wgt>
<wgt id='1640'> +7.6854475e+01 </wgt>
<wgt id='1641'> +7.6938287e+01 </wgt>
<wgt id='1642'> +7.6855057e+01 </wgt>
<wgt id='1643'> +7.6861144e+01 </wgt>
<wgt id='1644'> +7.6843022e+01 </wgt>
<wgt id='1645'> +7.6843926e+01 </wgt>
<wgt id='1646'> +7.6922109e+01 </wgt>
<wgt id='1647'> +7.6855551e+01 </wgt>
<wgt id='1648'> +7.6822829e+01 </wgt>
<wgt id='1649'> +7.6911295e+01 </wgt>
<wgt id='1650'> +7.6844172e+01 </wgt>
<wgt id='1651'> +7.6882711e+01 </wgt>
<wgt id='1652'> +7.6847466e+01 </wgt>
<wgt id='1653'> +7.6827429e+01 </wgt>
<wgt id='1654'> +7.6877044e+01 </wgt>
<wgt id='1655'> +7.6871753e+01 </wgt>
<wgt id='1656'> +7.6844506e+01 </wgt>
<wgt id='1657'> +7.6854960e+01 </wgt>
<wgt id='1658'> +7.6837526e+01 </wgt>
<wgt id='1659'> +7.6894807e+01 </wgt>
<wgt id='1660'> +7.6863626e+01 </wgt>
<wgt id='1661'> +7.6857844e+01 </wgt>
<wgt id='1662'> +7.6870518e+01 </wgt>
<wgt id='1663'> +7.6858987e+01 </wgt>
<wgt id='1664'> +7.6868406e+01 </wgt>
<wgt id='1665'> +7.6858842e+01 </wgt>
<wgt id='1666'> +7.6871366e+01 </wgt>
<wgt id='1667'> +7.6878821e+01 </wgt>
<wgt id='1668'> +7.6858254e+01 </wgt>
<wgt id='1669'> +7.6862307e+01 </wgt>
<wgt id='1670'> +7.6122699e+01 </wgt>
<wgt id='1671'> +7.7482941e+01 </wgt>
<wgt id='1672'> +7.6101946e+01 </wgt>
<wgt id='1673'> +7.6430485e+01 </wgt>
<wgt id='1674'> +7.5525038e+01 </wgt>
<wgt id='1675'> +7.6152180e+01 </wgt>
<wgt id='1676'> +7.6697076e+01 </wgt>
<wgt id='1677'> +7.7373776e+01 </wgt>
<wgt id='1678'> +7.6133498e+01 </wgt>
<wgt id='1679'> +7.6150187e+01 </wgt>
<wgt id='1680'> +7.6207561e+01 </wgt>
<wgt id='1681'> +7.6209527e+01 </wgt>
<wgt id='1682'> +7.6181553e+01 </wgt>
<wgt id='1683'> +7.5645448e+01 </wgt>
<wgt id='1684'> +7.5956947e+01 </wgt>
<wgt id='1685'> +7.6156043e+01 </wgt>
<wgt id='1686'> +7.5395941e+01 </wgt>
<wgt id='1687'> +7.6122871e+01 </wgt>
<wgt id='1688'> +7.6194151e+01 </wgt>
<wgt id='1689'> +7.6056632e+01 </wgt>
<wgt id='1690'> +7.6105339e+01 </wgt>
<wgt id='1691'> +7.6011426e+01 </wgt>
<wgt id='1692'> +7.6276674e+01 </wgt>
<wgt id='1693'> +7.6120533e+01 </wgt>
<wgt id='1694'> +7.6121552e+01 </wgt>
<wgt id='1695'> +7.6141947e+01 </wgt>
<wgt id='1696'> +7.6144124e+01 </wgt>
<wgt id='1697'> +7.6099630e+01 </wgt>
<wgt id='1698'> +7.6071264e+01 </wgt>
<wgt id='1699'> +7.6218439e+01 </wgt>
<wgt id='1700'> +7.6342086e+01 </wgt>
<wgt id='1701'> +7.5924231e+01 </wgt>
<wgt id='1702'> +7.6076543e+01 </wgt>
<wgt id='1703'> +7.5320666e+01 </wgt>
<wgt id='1704'> +7.6725800e+01 </wgt>
<wgt id='1705'> +7.6877067e+01 </wgt>
<wgt id='1706'> +7.6733386e+01 </wgt>
<wgt id='1707'> +7.7842821e+01 </wgt>
<wgt id='1708'> +7.6828327e+01 </wgt>
<wgt id='1709'> +7.6506499e+01 </wgt>
<wgt id='1710'> +7.6359352e+01 </wgt>
<wgt id='1711'> +7.6917676e+01 </wgt>
<wgt id='1712'> +7.6757142e+01 </wgt>
<wgt id='1713'> +7.6934110e+01 </wgt>
<wgt id='1714'> +7.6408021e+01 </wgt>
<wgt id='1715'> +7.6550173e+01 </wgt>
<wgt id='1716'> +7.6937771e+01 </wgt>
<wgt id='1717'> +7.6901830e+01 </wgt>
<wgt id='1718'> +7.7142311e+01 </wgt>
<wgt id='1719'> +7.6750498e+01 </wgt>
<wgt id='1720'> +7.6935343e+01 </wgt>
<wgt id='1721'> +7.6892102e+01 </wgt>
<wgt id='1722'> +7.7279272e+01 </wgt>
<wgt id='1723'> +7.6912424e+01 </wgt>
<wgt id='1724'> +7.6917244e+01 </wgt>
<wgt id='1725'> +7.6558948e+01 </wgt>
<wgt id='1726'> +7.6839164e+01 </wgt>
<wgt id='1727'> +7.7904491e+01 </wgt>
<wgt id='1728'> +7.6892637e+01 </wgt>
<wgt id='1729'> +7.6796386e+01 </wgt>
<wgt id='1730'> +7.6904707e+01 </wgt>
<wgt id='1731'> +7.6931809e+01 </wgt>
<wgt id='1732'> +7.6766946e+01 </wgt>
<wgt id='1733'> +7.6780736e+01 </wgt>
<wgt id='1734'> +7.6837461e+01 </wgt>
<wgt id='1735'> +7.6855545e+01 </wgt>
<wgt id='1736'> +7.6122699e+01 </wgt>
<wgt id='1737'> +7.7482941e+01 </wgt>
<wgt id='1738'> +7.6721970e+01 </wgt>
<wgt id='1739'> +7.6742820e+01 </wgt>
<wgt id='1740'> +7.6701245e+01 </wgt>
<wgt id='1741'> +7.6745540e+01 </wgt>
<wgt id='1742'> +7.6698278e+01 </wgt>
<wgt id='1743'> +7.6869206e+01 </wgt>
<wgt id='1744'> +7.6575062e+01 </wgt>
<wgt id='1745'> +7.6820211e+01 </wgt>
<wgt id='1746'> +7.6622683e+01 </wgt>
<wgt id='1747'> +7.7131622e+01 </wgt>
<wgt id='1748'> +7.6311309e+01 </wgt>
<wgt id='1749'> +7.6590590e+01 </wgt>
<wgt id='1750'> +7.6876870e+01 </wgt>
<wgt id='1751'> +7.6504956e+01 </wgt>
<wgt id='1752'> +7.6941032e+01 </wgt>
<wgt id='1753'> +7.6618289e+01 </wgt>
<wgt id='1754'> +7.6701225e+01 </wgt>
<wgt id='1755'> +7.6818263e+01 </wgt>
<wgt id='1756'> +7.6648899e+01 </wgt>
<wgt id='1757'> +7.6631021e+01 </wgt>
<wgt id='1758'> +7.6767263e+01 </wgt>
<wgt id='1759'> +7.6829840e+01 </wgt>
<wgt id='1760'> +7.6548871e+01 </wgt>
<wgt id='1761'> +7.6949212e+01 </wgt>
<wgt id='1762'> +7.6193699e+01 </wgt>
<wgt id='1763'> +7.6775807e+01 </wgt>
<wgt id='1764'> +7.6743607e+01 </wgt>
<wgt id='1765'> +7.7003467e+01 </wgt>
<wgt id='1766'> +7.6486641e+01 </wgt>
<wgt id='1767'> +7.6721970e+01 </wgt>
<wgt id='1768'> +7.8156130e+01 </wgt>
<wgt id='1769'> +7.4996325e+01 </wgt>
<wgt id='1770'> +7.9124371e+01 </wgt>
<wgt id='1771'> +7.6898579e+01 </wgt>
<wgt id='1772'> +7.6822810e+01 </wgt>
<wgt id='1773'> +7.6553339e+01 </wgt>
<wgt id='1774'> +7.6568585e+01 </wgt>
<wgt id='1775'> +7.6859105e+01 </wgt>
<wgt id='1776'> +7.6389730e+01 </wgt>
<wgt id='1777'> +7.7026049e+01 </wgt>
<wgt id='1778'> +7.6475677e+01 </wgt>
<wgt id='1779'> +7.7161298e+01 </wgt>
<wgt id='1780'> +7.4222734e+01 </wgt>
<wgt id='1781'> +7.4845195e+01 </wgt>
<wgt id='1782'> +7.4892834e+01 </wgt>
<wgt id='1783'> +7.4791714e+01 </wgt>
<wgt id='1784'> +7.4777874e+01 </wgt>
<wgt id='1785'> +7.4906679e+01 </wgt>
<wgt id='1786'> +7.4953466e+01 </wgt>
<wgt id='1787'> +7.4731075e+01 </wgt>
<wgt id='1788'> +7.4911303e+01 </wgt>
<wgt id='1789'> +7.4770578e+01 </wgt>
<wgt id='1790'> +7.4960473e+01 </wgt>
<wgt id='1791'> +7.4726377e+01 </wgt>
<wgt id='1792'> +7.5243139e+01 </wgt>
<wgt id='1793'> +7.4445712e+01 </wgt>
<wgt id='1794'> +7.4617199e+01 </wgt>
<wgt id='1795'> +7.5064152e+01 </wgt>
<wgt id='1796'> +7.4709989e+01 </wgt>
<wgt id='1797'> +7.4858295e+01 </wgt>
<wgt id='1798'> +7.4957731e+01 </wgt>
<wgt id='1799'> +7.4716003e+01 </wgt>
<wgt id='1800'> +7.4884893e+01 </wgt>
<wgt id='1801'> +7.4798682e+01 </wgt>
<wgt id='1802'> +7.4577892e+01 </wgt>
<wgt id='1803'> +7.5033883e+01 </wgt>
<wgt id='1804'> +7.5116264e+01 </wgt>
<wgt id='1805'> +7.4571415e+01 </wgt>
<wgt id='1806'> +7.5172172e+01 </wgt>
<wgt id='1807'> +7.4395766e+01 </wgt>
<wgt id='1808'> +7.5373530e+01 </wgt>
<wgt id='1809'> +7.4386511e+01 </wgt>
<wgt id='1810'> +7.4846944e+01 </wgt>
<wgt id='1811'> +7.6513584e+01 </wgt>
<wgt id='1812'> +7.2922415e+01 </wgt>
<wgt id='1813'> +7.7439077e+01 </wgt>
<wgt id='1814'> +7.4810308e+01 </wgt>
<wgt id='1815'> +7.5343827e+01 </wgt>
<wgt id='1816'> +7.4596819e+01 </wgt>
<wgt id='1817'> +7.4674915e+01 </wgt>
<wgt id='1818'> +7.4943973e+01 </wgt>
<wgt id='1819'> +7.4858034e+01 </wgt>
<wgt id='1820'> +7.5653024e+01 </wgt>
<wgt id='1821'> +7.5188398e+01 </wgt>
<wgt id='1822'> +7.4934265e+01 </wgt>
<wgt id='1823'> +7.4506774e+01 </wgt>
<wgt id='1824'> +7.5630655e+01 </wgt>
<wgt id='1825'> +7.5609487e+01 </wgt>
<wgt id='1826'> +7.5588135e+01 </wgt>
<wgt id='1827'> +7.5567090e+01 </wgt>
<wgt id='1828'> +7.5546115e+01 </wgt>
<wgt id='1829'> +7.5524814e+01 </wgt>
<wgt id='1830'> +7.5503767e+01 </wgt>
<wgt id='1831'> +7.5482572e+01 </wgt>
<wgt id='1832'> +7.5461546e+01 </wgt>
<wgt id='1833'> +7.5440291e+01 </wgt>
<wgt id='1834'> +7.5419306e+01 </wgt>
<wgt id='1835'> +7.5398265e+01 </wgt>
<wgt id='1836'> +7.5377038e+01 </wgt>
<wgt id='1837'> +7.5355970e+01 </wgt>
<wgt id='1838'> +7.5334751e+01 </wgt>
<wgt id='1839'> +7.5313803e+01 </wgt>
<wgt id='1840'> +7.5292506e+01 </wgt>
<wgt id='1841'> +7.5271487e+01 </wgt>
<wgt id='1842'> +7.5250530e+01 </wgt>
<wgt id='1843'> +7.5229229e+01 </wgt>
<wgt id='1844'> +7.5208112e+01 </wgt>
<wgt id='1845'> +7.5187116e+01 </wgt>
<wgt id='1846'> +7.5166085e+01 </wgt>
<wgt id='1847'> +7.5144907e+01 </wgt>
<wgt id='1848'> +7.5123853e+01 </wgt>
<wgt id='1849'> +7.5102861e+01 </wgt>
<wgt id='1850'> +7.5081483e+01 </wgt>
<wgt id='1851'> +7.5060501e+01 </wgt>
<wgt id='1852'> +7.5039503e+01 </wgt>
<wgt id='1853'> +7.5018289e+01 </wgt>
<wgt id='1854'> +7.4997299e+01 </wgt>
<wgt id='1855'> +7.6249408e+01 </wgt>
<wgt id='1856'> +7.6442623e+01 </wgt>
<wgt id='1857'> +7.6345962e+01 </wgt>
<wgt id='1858'> +7.6036068e+01 </wgt>
<wgt id='1859'> +7.6522880e+01 </wgt>
<wgt id='1860'> +7.6976662e+01 </wgt>
<wgt id='1861'> +7.6103992e+01 </wgt>
<wgt id='1862'> +7.5942096e+01 </wgt>
<wgt id='1863'> +7.6174023e+01 </wgt>
<wgt id='1864'> +7.6317483e+01 </wgt>
<wgt id='1865'> +7.6007871e+01 </wgt>
<wgt id='1866'> +7.7051898e+01 </wgt>
<wgt id='1867'> +7.6058239e+01 </wgt>
<wgt id='1868'> +7.5740378e+01 </wgt>
<wgt id='1869'> +7.5703097e+01 </wgt>
<wgt id='1870'> +7.6695019e+01 </wgt>
<wgt id='1871'> +7.6461510e+01 </wgt>
<wgt id='1872'> +7.6204010e+01 </wgt>
<wgt id='1873'> +7.6438710e+01 </wgt>
<wgt id='1874'> +7.5648905e+01 </wgt>
<wgt id='1875'> +7.6381946e+01 </wgt>
<wgt id='1876'> +7.6243290e+01 </wgt>
<wgt id='1877'> +7.5844192e+01 </wgt>
<wgt id='1878'> +7.6218002e+01 </wgt>
<wgt id='1879'> +7.6134921e+01 </wgt>
<wgt id='1880'> +7.6366272e+01 </wgt>
<wgt id='1881'> +7.6219295e+01 </wgt>
<wgt id='1882'> +7.6064677e+01 </wgt>
<wgt id='1883'> +7.6421990e+01 </wgt>
<wgt id='1884'> +7.6319130e+01 </wgt>
<wgt id='1885'> +7.6210712e+01 </wgt>
<wgt id='1886'> +7.6308762e+01 </wgt>
<wgt id='1887'> +7.6173424e+01 </wgt>
<wgt id='1888'> +7.6627893e+01 </wgt>
<wgt id='1889'> +7.6099942e+01 </wgt>
<wgt id='1890'> +7.6760526e+01 </wgt>
<wgt id='1891'> +7.6003793e+01 </wgt>
<wgt id='1892'> +7.6431888e+01 </wgt>
<wgt id='1893'> +7.6174783e+01 </wgt>
<wgt id='1894'> +7.6167885e+01 </wgt>
<wgt id='1895'> +7.6170615e+01 </wgt>
<wgt id='1896'> +7.6334536e+01 </wgt>
<wgt id='1897'> +7.6184696e+01 </wgt>
<wgt id='1898'> +7.6053115e+01 </wgt>
<wgt id='1899'> +7.6242290e+01 </wgt>
<wgt id='1900'> +7.6339607e+01 </wgt>
<wgt id='1901'> +7.6190091e+01 </wgt>
<wgt id='1902'> +7.6265375e+01 </wgt>
<wgt id='1903'> +7.6301978e+01 </wgt>
<wgt id='1904'> +7.6206660e+01 </wgt>
<wgt id='1905'> +7.6254457e+01 </wgt>
<wgt id='1906'> +7.6323684e+01 </wgt>
<wgt id='1907'> +7.6270228e+01 </wgt>
<wgt id='1908'> +7.6222516e+01 </wgt>
<wgt id='1909'> +7.6266863e+01 </wgt>
<wgt id='1910'> +7.6236987e+01 </wgt>
<wgt id='1911'> +7.6272843e+01 </wgt>
<wgt id='1912'> +7.6256212e+01 </wgt>
<wgt id='1913'> +7.6168708e+01 </wgt>
<wgt id='1914'> +7.6210437e+01 </wgt>
<wgt id='1915'> +7.6191090e+01 </wgt>
<wgt id='1916'> +7.6247537e+01 </wgt>
<wgt id='1917'> +7.6283845e+01 </wgt>
<wgt id='1918'> +7.6277997e+01 </wgt>
<wgt id='1919'> +7.6228846e+01 </wgt>
<wgt id='1920'> +7.6278739e+01 </wgt>
<wgt id='1921'> +7.6248150e+01 </wgt>
<wgt id='1922'> +7.6268491e+01 </wgt>
<wgt id='1923'> +7.6202772e+01 </wgt>
<wgt id='1924'> +7.6288255e+01 </wgt>
<wgt id='1925'> +7.6236131e+01 </wgt>
<wgt id='1926'> +7.6238837e+01 </wgt>
<wgt id='1927'> +7.6320439e+01 </wgt>
<wgt id='1928'> +7.6238476e+01 </wgt>
<wgt id='1929'> +7.6245105e+01 </wgt>
<wgt id='1930'> +7.6226754e+01 </wgt>
<wgt id='1931'> +7.6229808e+01 </wgt>
<wgt id='1932'> +7.6304678e+01 </wgt>
<wgt id='1933'> +7.6240942e+01 </wgt>
<wgt id='1934'> +7.6207525e+01 </wgt>
<wgt id='1935'> +7.6293581e+01 </wgt>
<wgt id='1936'> +7.6230978e+01 </wgt>
<wgt id='1937'> +7.6266736e+01 </wgt>
<wgt id='1938'> +7.6231730e+01 </wgt>
<wgt id='1939'> +7.6210827e+01 </wgt>
<wgt id='1940'> +7.6260742e+01 </wgt>
<wgt id='1941'> +7.6258291e+01 </wgt>
<wgt id='1942'> +7.6226740e+01 </wgt>
<wgt id='1943'> +7.6237988e+01 </wgt>
<wgt id='1944'> +7.6221261e+01 </wgt>
<wgt id='1945'> +7.6277123e+01 </wgt>
<wgt id='1946'> +7.6246283e+01 </wgt>
<wgt id='1947'> +7.6240682e+01 </wgt>
<wgt id='1948'> +7.6254285e+01 </wgt>
<wgt id='1949'> +7.6241203e+01 </wgt>
<wgt id='1950'> +7.6251403e+01 </wgt>
<wgt id='1951'> +7.6243276e+01 </wgt>
<wgt id='1952'> +7.6255200e+01 </wgt>
<wgt id='1953'> +7.6262199e+01 </wgt>
<wgt id='1954'> +7.6242298e+01 </wgt>
<wgt id='1955'> +7.6246673e+01 </wgt>
<wgt id='1956'> +7.6248835e+01 </wgt>
<wgt id='1957'> +7.6252541e+01 </wgt>
<wgt id='1958'> +7.6250011e+01 </wgt>
<wgt id='1959'> +7.6250111e+01 </wgt>
<wgt id='1960'> +7.6251170e+01 </wgt>
<wgt id='1961'> +7.6249664e+01 </wgt>
<wgt id='1962'> +7.6253199e+01 </wgt>
</rwgt>
</event>
<event npLO=" -1 " npNLO=" 1 ">
 8      1 +1.5146096e+02 4.70702350e+01 7.54677110e-03 1.23232690e-01
       -1 -1    0    0    0  501 +0.0000000000e+00 +0.0000000000e+00 +1.3958178000e+03 1.3958178000e+03 0.0000000000e+00 0.0000e+00 9.0000e+00
       21 -1    0    0  502  503 +0.0000000000e+00 +0.0000000000e+00 -4.9482897000e+01 4.9482897000e+01 0.0000000000e+00 0.0000e+00 9.0000e+00
       23  2    1    2    0    0 +1.3116926000e+01 +1.5785754000e+01 +1.2561243000e+03 1.2597983000e+03 9.3927934000e+01 0.0000e+00 0.0000e+00
       15  1    3    3    0    0 -2.4192930000e+01 +3.2687926000e+01 +2.9442421000e+02 2.9722478000e+02 1.7770000000e+00 0.0000e+00 9.0000e+00
      -15  1    3    3    0    0 +3.7309856000e+01 -1.6902172000e+01 +9.6170006000e+02 9.6257356000e+02 1.7770000000e+00 0.0000e+00 9.0000e+00
       22  1    1    2    0    0 +2.0780544000e+01 +1.3041731000e+01 +5.5661713000e+01 6.0828809000e+01 0.0000000000e+00 0.0000e+00 9.0000e+00
       -1  1    1    2    0  503 +1.3376696000e+01 -2.9057956000e+00 +6.2474157000e+01 6.3956234000e+01 0.0000000000e+00 0.0000e+00 9.0000e+00
       21  1    1    2  502  501 -4.7274166000e+01 -2.5921690000e+01 -2.7925188000e+01 6.0717353000e+01 0.0000000000e+00 0.0000e+00 9.0000e+00
#aMCatNLO 2  0  0  2  6 0.27459943E+02 0.00000000E+00 -9  7  0 0.00000000E+00 0.00000000E+00 0.00000000E+00 0.00000000E+00 0.00000000E+00
<rwgt>
<wgt id='1001'> +1.5146000e+02 </wgt>
<wgt id='1002'> +1.5146000e+02 </wgt>
<wgt id='1003'> +1.4514000e+02 </wgt>
<wgt id='1004'> +1.6466000e+02 </wgt>
<wgt id='1005'> +1.4344000e+02 </wgt>
<wgt id='1006'> +1.3223000e+02 </wgt>
<wgt id='1007'> +1.5565000e+02 </wgt>
<wgt id='1008'> +1.3122000e+02 </wgt>
<wgt id='1009'> +1.5993000e+02 </wgt>
<wgt id='1010'> +1.3277000e+02 </wgt>
<wgt id='1011'> +1.6655000e+02 </wgt>
<wgt id='1012'> +1.4919000e+02 </wgt>
<wgt id='1013'> +1.4524000e+02 </wgt>
<wgt id='1014'> +1.5005000e+02 </wgt>
<wgt id='1015'> +1.6567000e+02 </wgt>
<wgt id='1016'> +1.5526000e+02 </wgt>
<wgt id='1017'> +1.3191000e+02 </wgt>
<wgt id='1018'> +1.5612000e+02 </wgt>
<wgt id='1019'> +1.3788000e+02 </wgt>
<wgt id='1020'> +1.5564000e+02 </wgt>
<wgt id='1021'> +1.3291000e+02 </wgt>
<wgt id='1022'> +1.6080000e+02 </wgt>
<wgt id='1023'> +1.7929000e+02 </wgt>
<wgt id='1024'> +1.6090000e+02 </wgt>
<wgt id='1025'> +1.6691000e+02 </wgt>
<wgt id='1026'> +1.7268000e+02 </wgt>
<wgt id='1027'> +1.7406000e+02 </wgt>
<wgt id='1028'> +1.6147000e+02 </wgt>
<wgt id='1029'> +1.4561000e+02 </wgt>
<wgt id='1030'> +1.6116000e+02 </wgt>
<wgt id='1031'> +1.4303000e+02 </wgt>
<wgt id='1032'> +1.4848000e+02 </wgt>
<wgt id='1033'> +1.5830000e+02 </wgt>
<wgt id='1034'> +1.4664000e+02 </wgt>
<wgt id='1035'> +1.5465000e+02 </wgt>
<wgt id='1036'> +1.6024000e+02 </wgt>
<wgt id='1037'> +1.5098000e+02 </wgt>
<wgt id='1038'> +1.4364000e+02 </wgt>
<wgt id='1039'> +1.4647000e+02 </wgt>
<wgt id='1040'> +1.1876000e+02 </wgt>
<wgt id='1041'> +1.6230000e+02 </wgt>
<wgt id='1042'> +1.6499000e+02 </wgt>
<wgt id='1043'> +1.6419000e+02 </wgt>
<wgt id='1044'> +1.5365000e+02 </wgt>
<wgt id='1045'> +1.3651000e+02 </wgt>
<wgt id='1046'> +1.5160000e+02 </wgt>
<wgt id='1047'> +1.5533000e+02 </wgt>
<wgt id='1048'> +1.4600000e+02 </wgt>
<wgt id='1049'> +1.3747000e+02 </wgt>
<wgt id='1050'> +1.4851000e+02 </wgt>
<wgt id='1051'> +1.2304000e+02 </wgt>
<wgt id='1052'> +1.5239000e+02 </wgt>
<wgt id='1053'> +1.3152000e+02 </wgt>
<wgt id='1054'> +1.5162000e+02 </wgt>
<wgt id='1055'> +1.5279000e+02 </wgt>
<wgt id='1056'> +1.8400000e+02 </wgt>
<wgt id='1057'> +1.4219000e+02 </wgt>
<wgt id='1058'> +1.4782000e+02 </wgt>
<wgt id='1059'> +1.6475000e+02 </wgt>
<wgt id='1060'> +1.4498000e+02 </wgt>
<wgt id='1061'> +1.2880000e+02 </wgt>
<wgt id='1062'> +1.3525000e+02 </wgt>
<wgt id='1063'> +1.4360000e+02 </wgt>
<wgt id='1064'> +1.5400000e+02 </wgt>
<wgt id='1065'> +1.7181000e+02 </wgt>
<wgt id='1066'> +1.2062000e+02 </wgt>
<wgt id='1067'> +1.6692000e+02 </wgt>
<wgt id='1068'> +1.4362000e+02 </wgt>
<wgt id='1069'> +1.2879000e+02 </wgt>
<wgt id='1070'> +1.6533000e+02 </wgt>
<wgt id='1071'> +1.4747000e+02 </wgt>
<wgt id='1072'> +1.7491000e+02 </wgt>
<wgt id='1073'> +1.7127000e+02 </wgt>
<wgt id='1074'> +1.4065000e+02 </wgt>
<wgt id='1075'> +1.6288000e+02 </wgt>
<wgt id='1076'> +1.4921000e+02 </wgt>
<wgt id='1077'> +1.5149000e+02 </wgt>
<wgt id='1078'> +1.3680000e+02 </wgt>
<wgt id='1079'> +1.5760000e+02 </wgt>
<wgt id='1080'> +1.5240000e+02 </wgt>
<wgt id='1081'> +1.6277000e+02 </wgt>
<wgt id='1082'> +1.6285000e+02 </wgt>
<wgt id='1083'> +1.5804000e+02 </wgt>
<wgt id='1084'> +1.4475000e+02 </wgt>
<wgt id='1085'> +1.4514000e+02 </wgt>
<wgt id='1086'> +1.7148000e+02 </wgt>
<wgt id='1087'> +1.3169000e+02 </wgt>
<wgt id='1088'> +1.3990000e+02 </wgt>
<wgt id='1089'> +1.3442000e+02 </wgt>
<wgt id='1090'> +1.3790000e+02 </wgt>
<wgt id='1091'> +1.5895000e+02 </wgt>
<wgt id='1092'> +1.6599000e+02 </wgt>
<wgt id='1093'> +1.4333000e+02 </wgt>
<wgt id='1094'> +1.6436000e+02 </wgt>
<wgt id='1095'> +1.6118000e+02 </wgt>
<wgt id='1096'> +1.8210000e+02 </wgt>
<wgt id='1097'> +1.5145000e+02 </wgt>
<wgt id='1098'> +1.4110000e+02 </wgt>
<wgt id='1099'> +1.8383000e+02 </wgt>
<wgt id='1100'> +1.4883000e+02 </wgt>
<wgt id='1101'> +1.4646000e+02 </wgt>
<wgt id='1102'> +1.2492000e+02 </wgt>
<wgt id='1103'> +1.4862000e+02 </wgt>
<wgt id='1104'> +1.5085000e+02 </wgt>
<wgt id='1105'> +1.5146096e+02 </wgt>
<wgt id='1106'> +6.1561543e+01 </wgt>
<wgt id='1107'> +9.5520901e+01 </wgt>
<wgt id='1108'> +7.2434406e+01 </wgt>
<wgt id='1109'> +5.8882157e+01 </wgt>
<wgt id='1110'> +9.1363478e+01 </wgt>
<wgt id='1111'> +7.8423918e+01 </wgt>
<wgt id='1112'> +6.3751050e+01 </wgt>
<wgt id='1113'> +9.8918210e+01 </wgt>
<wgt id='1114'> +7.1254031e+01 </wgt>
<wgt id='1115'> +6.3991098e+01 </wgt>
<wgt id='1116'> +6.7724234e+01 </wgt>
<wgt id='1117'> +6.7441047e+01 </wgt>
<wgt id='1118'> +7.2361915e+01 </wgt>
<wgt id='1119'> +8.4016099e+01 </wgt>
<wgt id='1120'> +7.2672072e+01 </wgt>
<wgt id='1121'> +7.2780021e+01 </wgt>
<wgt id='1122'> +7.9470080e+01 </wgt>
<wgt id='1123'> +6.2201855e+01 </wgt>
<wgt id='1124'> +5.6358941e+01 </wgt>
<wgt id='1125'> +7.3352746e+01 </wgt>
<wgt id='1126'> +7.5057097e+01 </wgt>
<wgt id='1127'> +8.7269504e+01 </wgt>
<wgt id='1128'> +6.8266019e+01 </wgt>
<wgt id='1129'> +6.9316002e+01 </wgt>
<wgt id='1130'> +6.8747748e+01 </wgt>
<wgt id='1131'> +6.9488840e+01 </wgt>
<wgt id='1132'> +7.1868370e+01 </wgt>
<wgt id='1133'> +7.8579384e+01 </wgt>
<wgt id='1134'> +6.9577909e+01 </wgt>
<wgt id='1135'> +6.8774951e+01 </wgt>
<wgt id='1136'> +7.1731023e+01 </wgt>
<wgt id='1137'> +6.5696374e+01 </wgt>
<wgt id='1138'> +8.0333003e+01 </wgt>
<wgt id='1139'> +6.5330332e+01 </wgt>
<wgt id='1140'> +7.1564118e+01 </wgt>
<wgt id='1141'> +6.4133761e+01 </wgt>
<wgt id='1142'> +7.0550155e+01 </wgt>
<wgt id='1143'> +7.4660312e+01 </wgt>
<wgt id='1144'> +6.3485415e+01 </wgt>
<wgt id='1145'> +6.8913890e+01 </wgt>
<wgt id='1146'> +7.4884721e+01 </wgt>
<wgt id='1147'> +7.0910626e+01 </wgt>
<wgt id='1148'> +7.0687739e+01 </wgt>
<wgt id='1149'> +7.1037454e+01 </wgt>
<wgt id='1150'> +6.8552322e+01 </wgt>
<wgt id='1151'> +6.8937341e+01 </wgt>
<wgt id='1152'> +7.6765115e+01 </wgt>
<wgt id='1153'> +6.1993171e+01 </wgt>
<wgt id='1154'> +6.7339966e+01 </wgt>
<wgt id='1155'> +7.6122065e+01 </wgt>
<wgt id='1156'> +7.0071753e+01 </wgt>
<wgt id='1157'> +8.3440667e+01 </wgt>
<wgt id='1158'> +6.9424873e+01 </wgt>
<wgt id='1159'> +7.3420930e+01 </wgt>
<wgt id='1160'> +6.7804938e+01 </wgt>
<wgt id='1161'> +6.5556622e+01 </wgt>
<wgt id='1162'> +7.9106486e+01 </wgt>
<wgt id='1163'> +6.9356312e+01 </wgt>
<wgt id='1164'> +7.2279978e+01 </wgt>
<wgt id='1165'> +7.1311354e+01 </wgt>
<wgt id='1166'> +6.2777177e+01 </wgt>
<wgt id='1167'> +6.7475445e+01 </wgt>
<wgt id='1168'> +7.5367272e+01 </wgt>
<wgt id='1169'> +7.4059366e+01 </wgt>
<wgt id='1170'> +8.0306693e+01 </wgt>
<wgt id='1171'> +7.6638314e+01 </wgt>
<wgt id='1172'> +6.8476173e+01 </wgt>
<wgt id='1173'> +7.0275877e+01 </wgt>
<wgt id='1174'> +7.0699382e+01 </wgt>
<wgt id='1175'> +6.7448284e+01 </wgt>
<wgt id='1176'> +7.2262499e+01 </wgt>
<wgt id='1177'> +7.2625374e+01 </wgt>
<wgt id='1178'> +7.8151149e+01 </wgt>
<wgt id='1179'> +6.9815080e+01 </wgt>
<wgt id='1180'> +6.9168453e+01 </wgt>
<wgt id='1181'> +7.7704750e+01 </wgt>
<wgt id='1182'> +7.0889320e+01 </wgt>
<wgt id='1183'> +7.7170186e+01 </wgt>
<wgt id='1184'> +6.2168894e+01 </wgt>
<wgt id='1185'> +7.8475476e+01 </wgt>
<wgt id='1186'> +7.2396918e+01 </wgt>
<wgt id='1187'> +6.0911905e+01 </wgt>
<wgt id='1188'> +7.2737523e+01 </wgt>
<wgt id='1189'> +7.6351869e+01 </wgt>
<wgt id='1190'> +7.2354860e+01 </wgt>
<wgt id='1191'> +8.0830732e+01 </wgt>
<wgt id='1192'> +6.7897636e+01 </wgt>
<wgt id='1193'> +6.3639845e+01 </wgt>
<wgt id='1194'> +6.6327943e+01 </wgt>
<wgt id='1195'> +5.9133727e+01 </wgt>
<wgt id='1196'> +6.8747748e+01 </wgt>
<wgt id='1197'> +6.2351623e+01 </wgt>
<wgt id='1198'> +8.0751868e+01 </wgt>
<wgt id='1199'> +6.0974490e+01 </wgt>
<wgt id='1200'> +6.5429244e+01 </wgt>
<wgt id='1201'> +7.3175104e+01 </wgt>
<wgt id='1202'> +8.8416166e+01 </wgt>
<wgt id='1203'> +6.9805983e+01 </wgt>
<wgt id='1204'> +7.1220176e+01 </wgt>
<wgt id='1205'> +8.0966391e+01 </wgt>
<wgt id='1206'> +6.6259290e+01 </wgt>
<wgt id='1207'> +7.1297852e+01 </wgt>
<wgt id='1208'> +7.8071732e+01 </wgt>
<wgt id='1209'> +7.6114918e+01 </wgt>
<wgt id='1210'> +6.8221571e+01 </wgt>
<wgt id='1211'> +7.2797136e+01 </wgt>
<wgt id='1212'> +6.7850492e+01 </wgt>
<wgt id='1213'> +7.1839889e+01 </wgt>
<wgt id='1214'> +7.1598392e+01 </wgt>
<wgt id='1215'> +7.4301282e+01 </wgt>
<wgt id='1216'> +7.5930737e+01 </wgt>
<wgt id='1217'> +7.6201712e+01 </wgt>
<wgt id='1218'> +7.5920276e+01 </wgt>
<wgt id='1219'> +7.6232324e+01 </wgt>
<wgt id='1220'> +7.5718729e+01 </wgt>
<wgt id='1221'> +7.5633090e+01 </wgt>
<wgt id='1222'> +7.6033723e+01 </wgt>
<wgt id='1223'> +7.5762186e+01 </wgt>
<wgt id='1224'> +7.5026188e+01 </wgt>
<wgt id='1225'> +7.6038144e+01 </wgt>
<wgt id='1226'> +7.5944115e+01 </wgt>
<wgt id='1227'> +7.6396032e+01 </wgt>
<wgt id='1228'> +7.6227315e+01 </wgt>
<wgt id='1229'> +7.5180700e+01 </wgt>
<wgt id='1230'> +7.6521226e+01 </wgt>
<wgt id='1231'> +7.6034151e+01 </wgt>
<wgt id='1232'> +7.5576163e+01 </wgt>
<wgt id='1233'> +7.6310958e+01 </wgt>
<wgt id='1234'> +7.5520166e+01 </wgt>
<wgt id='1235'> +7.5742902e+01 </wgt>
<wgt id='1236'> +7.5619611e+01 </wgt>
<wgt id='1237'> +7.6618437e+01 </wgt>
<wgt id='1238'> +7.6061137e+01 </wgt>
<wgt id='1239'> +7.6328526e+01 </wgt>
<wgt id='1240'> +7.6178737e+01 </wgt>
<wgt id='1241'> +7.5399473e+01 </wgt>
<wgt id='1242'> +7.5896828e+01 </wgt>
<wgt id='1243'> +7.5948279e+01 </wgt>
<wgt id='1244'> +7.5526172e+01 </wgt>
<wgt id='1245'> +7.6131910e+01 </wgt>
<wgt id='1246'> +7.6960769e+01 </wgt>
<wgt id='1247'> +7.5776566e+01 </wgt>
<wgt id='1248'> +7.6021386e+01 </wgt>
<wgt id='1249'> +7.6587654e+01 </wgt>
<wgt id='1250'> +7.6289756e+01 </wgt>
<wgt id='1251'> +7.5946442e+01 </wgt>
<wgt id='1252'> +7.5858031e+01 </wgt>
<wgt id='1253'> +7.4447476e+01 </wgt>
<wgt id='1254'> +7.6037022e+01 </wgt>
<wgt id='1255'> +7.6018264e+01 </wgt>
<wgt id='1256'> +7.6579083e+01 </wgt>
<wgt id='1257'> +7.5400866e+01 </wgt>
<wgt id='1258'> +7.6463335e+01 </wgt>
<wgt id='1259'> +7.6419189e+01 </wgt>
<wgt id='1260'> +7.6266656e+01 </wgt>
<wgt id='1261'> +7.6411028e+01 </wgt>
<wgt id='1262'> +7.5893301e+01 </wgt>
<wgt id='1263'> +7.6621166e+01 </wgt>
<wgt id='1264'> +7.6682750e+01 </wgt>
<wgt id='1265'> +7.6186570e+01 </wgt>
<wgt id='1266'> +7.6824722e+01 </wgt>
<wgt id='1267'> +7.5644082e+01 </wgt>
<wgt id='1268'> +7.7158269e+01 </wgt>
<wgt id='1269'> +7.3991874e+01 </wgt>
<wgt id='1270'> +7.5735977e+01 </wgt>
<wgt id='1271'> +7.5727563e+01 </wgt>
<wgt id='1272'> +7.5752877e+01 </wgt>
<wgt id='1273'> +7.7287229e+01 </wgt>
<wgt id='1274'> +7.5047202e+01 </wgt>
<wgt id='1275'> +7.3430097e+01 </wgt>
<wgt id='1276'> +7.3592521e+01 </wgt>
<wgt id='1277'> +7.6323616e+01 </wgt>
<wgt id='1278'> +7.7674913e+01 </wgt>
<wgt id='1279'> +7.6589017e+01 </wgt>
<wgt id='1280'> +7.5478070e+01 </wgt>
<wgt id='1281'> +7.6476403e+01 </wgt>
<wgt id='1282'> +7.5963856e+01 </wgt>
<wgt id='1283'> +7.6813541e+01 </wgt>
<wgt id='1284'> +7.6509778e+01 </wgt>
<wgt id='1285'> +7.7478143e+01 </wgt>
<wgt id='1286'> +7.5720463e+01 </wgt>
<wgt id='1287'> +7.4296496e+01 </wgt>
<wgt id='1288'> +7.6884223e+01 </wgt>
<wgt id='1289'> +7.6170043e+01 </wgt>
<wgt id='1290'> +7.6205649e+01 </wgt>
<wgt id='1291'> +7.6610978e+01 </wgt>
<wgt id='1292'> +7.6878774e+01 </wgt>
<wgt id='1293'> +7.5229814e+01 </wgt>
<wgt id='1294'> +7.6276058e+01 </wgt>
<wgt id='1295'> +7.6065165e+01 </wgt>
<wgt id='1296'> +7.5402150e+01 </wgt>
<wgt id='1297'> +7.6308204e+01 </wgt>
<wgt id='1298'> +7.6572503e+01 </wgt>
<wgt id='1299'> +7.5474214e+01 </wgt>
<wgt id='1300'> +7.5757209e+01 </wgt>
<wgt id='1301'> +7.5891283e+01 </wgt>
<wgt id='1302'> +7.6170844e+01 </wgt>
<wgt id='1303'> +7.6748335e+01 </wgt>
<wgt id='1304'> +7.5626497e+01 </wgt>
<wgt id='1305'> +7.5896056e+01 </wgt>
<wgt id='1306'> +7.6049520e+01 </wgt>
<wgt id='1307'> +7.5523017e+01 </wgt>
<wgt id='1308'> +7.6304549e+01 </wgt>
<wgt id='1309'> +7.6653336e+01 </wgt>
<wgt id='1310'> +7.6650908e+01 </wgt>
<wgt id='1311'> +7.5468543e+01 </wgt>
<wgt id='1312'> +7.6211152e+01 </wgt>
<wgt id='1313'> +7.6147897e+01 </wgt>
<wgt id='1314'> +7.5636057e+01 </wgt>
<wgt id='1315'> +7.5998468e+01 </wgt>
<wgt id='1316'> +7.6246742e+01 </wgt>
<wgt id='1317'> +7.3709797e+01 </wgt>
<wgt id='1318'> +7.7652580e+01 </wgt>
<wgt id='1319'> +1.0441661e+02 </wgt>
<wgt id='1320'> +7.4448896e+01 </wgt>
<wgt id='1321'> +7.4650465e+01 </wgt>
<wgt id='1322'> +7.5582131e+01 </wgt>
<wgt id='1323'> +7.7759595e+01 </wgt>
<wgt id='1324'> +7.3531960e+01 </wgt>
<wgt id='1325'> +7.7536752e+01 </wgt>
<wgt id='1326'> +7.3075623e+01 </wgt>
<wgt id='1327'> +7.1902995e+01 </wgt>
<wgt id='1328'> +7.8343309e+01 </wgt>
<wgt id='1329'> +7.5018401e+01 </wgt>
<wgt id='1330'> +7.3709562e+01 </wgt>
<wgt id='1331'> +6.9402153e+01 </wgt>
<wgt id='1332'> +7.8202135e+01 </wgt>
<wgt id='1333'> +8.0120904e+01 </wgt>
<wgt id='1334'> +6.9404040e+01 </wgt>
<wgt id='1335'> +7.5049222e+01 </wgt>
<wgt id='1336'> +7.2295775e+01 </wgt>
<wgt id='1337'> +7.3558031e+01 </wgt>
<wgt id='1338'> +7.5281184e+01 </wgt>
<wgt id='1339'> +7.8362276e+01 </wgt>
<wgt id='1340'> +7.1121200e+01 </wgt>
<wgt id='1341'> +8.0092145e+01 </wgt>
<wgt id='1342'> +6.6056102e+01 </wgt>
<wgt id='1343'> +7.2392634e+01 </wgt>
<wgt id='1344'> +7.6532554e+01 </wgt>
<wgt id='1345'> +7.4160654e+01 </wgt>
<wgt id='1346'> +7.4713168e+01 </wgt>
<wgt id='1347'> +7.1332824e+01 </wgt>
<wgt id='1348'> +7.9143431e+01 </wgt>
<wgt id='1349'> +7.5898207e+01 </wgt>
<wgt id='1350'> +7.3928926e+01 </wgt>
<wgt id='1351'> +7.2980442e+01 </wgt>
<wgt id='1352'> +7.6338591e+01 </wgt>
<wgt id='1353'> +7.3932311e+01 </wgt>
<wgt id='1354'> +7.5650124e+01 </wgt>
<wgt id='1355'> +7.7670016e+01 </wgt>
<wgt id='1356'> +7.1398215e+01 </wgt>
<wgt id='1357'> +7.7305380e+01 </wgt>
<wgt id='1358'> +7.0609104e+01 </wgt>
<wgt id='1359'> +6.8453007e+01 </wgt>
<wgt id='1360'> +7.8622235e+01 </wgt>
<wgt id='1361'> +7.3769253e+01 </wgt>
<wgt id='1362'> +7.5335461e+01 </wgt>
<wgt id='1363'> +7.5738575e+01 </wgt>
<wgt id='1364'> +7.4000865e+01 </wgt>
<wgt id='1365'> +7.5912961e+01 </wgt>
<wgt id='1366'> +7.6293594e+01 </wgt>
<wgt id='1367'> +7.5436406e+01 </wgt>
<wgt id='1368'> +7.3303214e+01 </wgt>
<wgt id='1369'> +7.7338174e+01 </wgt>
<wgt id='1370'> +7.1643357e+01 </wgt>
<wgt id='1371'> +7.2856366e+01 </wgt>
<wgt id='1372'> +7.3175832e+01 </wgt>
<wgt id='1373'> +7.3293063e+01 </wgt>
<wgt id='1374'> +7.5379622e+01 </wgt>
<wgt id='1375'> +7.3857260e+01 </wgt>
<wgt id='1376'> +8.1535761e+01 </wgt>
<wgt id='1377'> +7.2768101e+01 </wgt>
<wgt id='1378'> +7.6015240e+01 </wgt>
<wgt id='1379'> +6.8832678e+01 </wgt>
<wgt id='1380'> +6.7770643e+01 </wgt>
<wgt id='1381'> +6.9924844e+01 </wgt>
<wgt id='1382'> +8.9137657e+01 </wgt>
<wgt id='1383'> +8.3654360e+01 </wgt>
<wgt id='1384'> +7.4931415e+01 </wgt>
<wgt id='1385'> +1.2709862e+02 </wgt>
<wgt id='1386'> +1.2712448e+02 </wgt>
<wgt id='1387'> +1.2710158e+02 </wgt>
<wgt id='1388'> +1.2723372e+02 </wgt>
<wgt id='1389'> +1.2688285e+02 </wgt>
<wgt id='1390'> +1.2687538e+02 </wgt>
<wgt id='1391'> +1.2738456e+02 </wgt>
<wgt id='1392'> +1.2720635e+02 </wgt>
<wgt id='1393'> +1.2702326e+02 </wgt>
<wgt id='1394'> +1.2683447e+02 </wgt>
<wgt id='1395'> +1.2748037e+02 </wgt>
<wgt id='1396'> +1.2571473e+02 </wgt>
<wgt id='1397'> +1.2782855e+02 </wgt>
<wgt id='1398'> +1.2714289e+02 </wgt>
<wgt id='1399'> +1.2710227e+02 </wgt>
<wgt id='1400'> +1.2710956e+02 </wgt>
<wgt id='1401'> +1.2710804e+02 </wgt>
<wgt id='1402'> +1.2461560e+02 </wgt>
<wgt id='1403'> +1.2827554e+02 </wgt>
<wgt id='1404'> +1.2809301e+02 </wgt>
<wgt id='1405'> +1.2663455e+02 </wgt>
<wgt id='1406'> +1.2718547e+02 </wgt>
<wgt id='1407'> +1.2696199e+02 </wgt>
<wgt id='1408'> +1.2636354e+02 </wgt>
<wgt id='1409'> +1.2862520e+02 </wgt>
<wgt id='1410'> +1.2696655e+02 </wgt>
<wgt id='1411'> +1.2746074e+02 </wgt>
<wgt id='1412'> +1.2626533e+02 </wgt>
<wgt id='1413'> +1.2816778e+02 </wgt>
<wgt id='1414'> +1.2673880e+02 </wgt>
<wgt id='1415'> +1.2742115e+02 </wgt>
<wgt id='1416'> +1.2803472e+02 </wgt>
<wgt id='1417'> +1.2614741e+02 </wgt>
<wgt id='1418'> +1.2386127e+02 </wgt>
<wgt id='1419'> +1.3491085e+02 </wgt>
<wgt id='1420'> +1.2652148e+02 </wgt>
<wgt id='1421'> +1.2711883e+02 </wgt>
<wgt id='1422'> +1.2262868e+02 </wgt>
<wgt id='1423'> +1.3227156e+02 </wgt>
<wgt id='1424'> +1.2927377e+02 </wgt>
<wgt id='1425'> +1.2428512e+02 </wgt>
<wgt id='1426'> +1.2712263e+02 </wgt>
<wgt id='1427'> +1.2700033e+02 </wgt>
<wgt id='1428'> +1.2995135e+02 </wgt>
<wgt id='1429'> +1.2332558e+02 </wgt>
<wgt id='1430'> +1.2648735e+02 </wgt>
<wgt id='1431'> +1.2790175e+02 </wgt>
<wgt id='1432'> +1.2704932e+02 </wgt>
<wgt id='1433'> +1.2714610e+02 </wgt>
<wgt id='1434'> +1.2795993e+02 </wgt>
<wgt id='1435'> +1.2226459e+02 </wgt>
<wgt id='1436'> +6.6718061e+01 </wgt>
<wgt id='1437'> +6.6706035e+01 </wgt>
<wgt id='1438'> +6.6846777e+01 </wgt>
<wgt id='1439'> +6.6726108e+01 </wgt>
<wgt id='1440'> +6.6347342e+01 </wgt>
<wgt id='1441'> +6.7273295e+01 </wgt>
<wgt id='1442'> +6.6534591e+01 </wgt>
<wgt id='1443'> +6.6562277e+01 </wgt>
<wgt id='1444'> +6.6812758e+01 </wgt>
<wgt id='1445'> +6.6352706e+01 </wgt>
<wgt id='1446'> +6.7405855e+01 </wgt>
<wgt id='1447'> +6.6469573e+01 </wgt>
<wgt id='1448'> +6.6242448e+01 </wgt>
<wgt id='1449'> +6.6521541e+01 </wgt>
<wgt id='1450'> +6.6631624e+01 </wgt>
<wgt id='1451'> +6.6831039e+01 </wgt>
<wgt id='1452'> +6.6805880e+01 </wgt>
<wgt id='1453'> +6.6126638e+01 </wgt>
<wgt id='1454'> +6.6705732e+01 </wgt>
<wgt id='1455'> +6.6428109e+01 </wgt>
<wgt id='1456'> +6.9306707e+01 </wgt>
<wgt id='1457'> +6.5611649e+01 </wgt>
<wgt id='1458'> +6.5818738e+01 </wgt>
<wgt id='1459'> +6.7986350e+01 </wgt>
<wgt id='1460'> +6.7318219e+01 </wgt>
<wgt id='1461'> +6.5713014e+01 </wgt>
<wgt id='1462'> +6.7377525e+01 </wgt>
<wgt id='1463'> +6.4926544e+01 </wgt>
<wgt id='1464'> +6.6575875e+01 </wgt>
<wgt id='1465'> +7.2677107e+01 </wgt>
<wgt id='1466'> +7.7955389e+01 </wgt>
<wgt id='1467'> +7.8405501e+01 </wgt>
<wgt id='1468'> +7.8779028e+01 </wgt>
<wgt id='1469'> +7.9664975e+01 </wgt>
<wgt id='1470'> +7.7955537e+01 </wgt>
<wgt id='1471'> +7.7391512e+01 </wgt>
<wgt id='1472'> +7.8362282e+01 </wgt>
<wgt id='1473'> +7.8211657e+01 </wgt>
<wgt id='1474'> +7.9321490e+01 </wgt>
<wgt id='1475'> +7.7778144e+01 </wgt>
<wgt id='1476'> +7.9114652e+01 </wgt>
<wgt id='1477'> +7.8773525e+01 </wgt>
<wgt id='1478'> +7.7607543e+01 </wgt>
<wgt id='1479'> +7.6580027e+01 </wgt>
<wgt id='1480'> +7.8479870e+01 </wgt>
<wgt id='1481'> +7.8017029e+01 </wgt>
<wgt id='1482'> +7.8361735e+01 </wgt>
<wgt id='1483'> +7.9029867e+01 </wgt>
<wgt id='1484'> +7.7630318e+01 </wgt>
<wgt id='1485'> +7.8617057e+01 </wgt>
<wgt id='1486'> +7.8976282e+01 </wgt>
<wgt id='1487'> +7.7620628e+01 </wgt>
<wgt id='1488'> +7.7423452e+01 </wgt>
<wgt id='1489'> +7.8917622e+01 </wgt>
<wgt id='1490'> +7.7728434e+01 </wgt>
<wgt id='1491'> +7.4993365e+01 </wgt>
<wgt id='1492'> +7.6964498e+01 </wgt>
<wgt id='1493'> +7.8818499e+01 </wgt>
<wgt id='1494'> +7.6163553e+01 </wgt>
<wgt id='1495'> +7.7830929e+01 </wgt>
<wgt id='1496'> +7.9480028e+01 </wgt>
<wgt id='1497'> +7.8025716e+01 </wgt>
<wgt id='1498'> +7.8156117e+01 </wgt>
<wgt id='1499'> +7.7876758e+01 </wgt>
<wgt id='1500'> +7.8085123e+01 </wgt>
<wgt id='1501'> +7.8366565e+01 </wgt>
<wgt id='1502'> +7.7997279e+01 </wgt>
<wgt id='1503'> +7.7239957e+01 </wgt>
<wgt id='1504'> +7.8768036e+01 </wgt>
<wgt id='1505'> +7.9274024e+01 </wgt>
<wgt id='1506'> +7.7658159e+01 </wgt>
<wgt id='1507'> +7.7949481e+01 </wgt>
<wgt id='1508'> +7.7988224e+01 </wgt>
<wgt id='1509'> +7.8387861e+01 </wgt>
<wgt id='1510'> +7.7535831e+01 </wgt>
<wgt id='1511'> +7.8363075e+01 </wgt>
<wgt id='1512'> +7.6724817e+01 </wgt>
<wgt id='1513'> +7.7846247e+01 </wgt>
<wgt id='1514'> +7.9650688e+01 </wgt>
<wgt id='1515'> +7.7384272e+01 </wgt>
<wgt id='1516'> +7.6408982e+01 </wgt>
<wgt id='1517'> +7.7377807e+01 </wgt>
<wgt id='1518'> +7.5221379e+01 </wgt>
<wgt id='1519'> +7.8300549e+01 </wgt>
<wgt id='1520'> +7.5370922e+01 </wgt>
<wgt id='1521'> +7.9132287e+01 </wgt>
<wgt id='1522'> +7.8389071e+01 </wgt>
<wgt id='1523'> +7.9307710e+01 </wgt>
<wgt id='1524'> +7.7752382e+01 </wgt>
<wgt id='1525'> +7.8695490e+01 </wgt>
<wgt id='1526'> +7.7810529e+01 </wgt>
<wgt id='1527'> +7.8031555e+01 </wgt>
<wgt id='1528'> +7.6771373e+01 </wgt>
<wgt id='1529'> +7.7787157e+01 </wgt>
<wgt id='1530'> +7.7264790e+01 </wgt>
<wgt id='1531'> +7.7012316e+01 </wgt>
<wgt id='1532'> +7.7810080e+01 </wgt>
<wgt id='1533'> +7.8621178e+01 </wgt>
<wgt id='1534'> +7.8737412e+01 </wgt>
<wgt id='1535'> +7.9162542e+01 </wgt>
<wgt id='1536'> +7.7319235e+01 </wgt>
<wgt id='1537'> +7.8562678e+01 </wgt>
<wgt id='1538'> +7.7432370e+01 </wgt>
<wgt id='1539'> +7.6954214e+01 </wgt>
<wgt id='1540'> +7.8554049e+01 </wgt>
<wgt id='1541'> +7.8371632e+01 </wgt>
<wgt id='1542'> +7.7516914e+01 </wgt>
<wgt id='1543'> +7.7389827e+01 </wgt>
<wgt id='1544'> +7.8648901e+01 </wgt>
<wgt id='1545'> +7.7726590e+01 </wgt>
<wgt id='1546'> +7.7906845e+01 </wgt>
<wgt id='1547'> +7.7937483e+01 </wgt>
<wgt id='1548'> +7.7801352e+01 </wgt>
<wgt id='1549'> +7.8242561e+01 </wgt>
<wgt id='1550'> +7.8235555e+01 </wgt>
<wgt id='1551'> +7.8251585e+01 </wgt>
<wgt id='1552'> +7.8310504e+01 </wgt>
<wgt id='1553'> +7.8159787e+01 </wgt>
<wgt id='1554'> +7.7870554e+01 </wgt>
<wgt id='1555'> +7.7638468e+01 </wgt>
<wgt id='1556'> +7.7670958e+01 </wgt>
<wgt id='1557'> +7.7697521e+01 </wgt>
<wgt id='1558'> +7.7771947e+01 </wgt>
<wgt id='1559'> +7.7587962e+01 </wgt>
<wgt id='1560'> +7.8067951e+01 </wgt>
<wgt id='1561'> +7.7875382e+01 </wgt>
<wgt id='1562'> +7.7831748e+01 </wgt>
<wgt id='1563'> +7.7976733e+01 </wgt>
<wgt id='1564'> +7.8237311e+01 </wgt>
<wgt id='1565'> +7.7908995e+01 </wgt>
<wgt id='1566'> +7.7865341e+01 </wgt>
<wgt id='1567'> +7.6441287e+01 </wgt>
<wgt id='1568'> +7.8850108e+01 </wgt>
<wgt id='1569'> +7.2657795e+01 </wgt>
<wgt id='1570'> +7.3082400e+01 </wgt>
<wgt id='1571'> +7.3193582e+01 </wgt>
<wgt id='1572'> +7.1653454e+01 </wgt>
<wgt id='1573'> +7.3429621e+01 </wgt>
<wgt id='1574'> +7.3170858e+01 </wgt>
<wgt id='1575'> +7.2433635e+01 </wgt>
<wgt id='1576'> +7.3210270e+01 </wgt>
<wgt id='1577'> +7.3204292e+01 </wgt>
<wgt id='1578'> +7.2447629e+01 </wgt>
<wgt id='1579'> +7.1607376e+01 </wgt>
<wgt id='1580'> +7.3482667e+01 </wgt>
<wgt id='1581'> +7.1837747e+01 </wgt>
<wgt id='1582'> +7.1084917e+01 </wgt>
<wgt id='1583'> +7.3227902e+01 </wgt>
<wgt id='1584'> +7.3205464e+01 </wgt>
<wgt id='1585'> +7.2618802e+01 </wgt>
<wgt id='1586'> +7.2957651e+01 </wgt>
<wgt id='1587'> +7.3902675e+01 </wgt>
<wgt id='1588'> +7.1835971e+01 </wgt>
<wgt id='1589'> +7.2222260e+01 </wgt>
<wgt id='1590'> +7.3114583e+01 </wgt>
<wgt id='1591'> +7.2863218e+01 </wgt>
<wgt id='1592'> +7.2949901e+01 </wgt>
<wgt id='1593'> +7.3620357e+01 </wgt>
<wgt id='1594'> +7.3317427e+01 </wgt>
<wgt id='1595'> +7.2907644e+01 </wgt>
<wgt id='1596'> +7.2249127e+01 </wgt>
<wgt id='1597'> +7.2476802e+01 </wgt>
<wgt id='1598'> +7.2949259e+01 </wgt>
<wgt id='1599'> +7.2736246e+01 </wgt>
<wgt id='1600'> +7.2301185e+01 </wgt>
<wgt id='1601'> +7.2322031e+01 </wgt>
<wgt id='1602'> +7.1374112e+01 </wgt>
<wgt id='1603'> +7.1940953e+01 </wgt>
<wgt id='1604'> +7.3220756e+01 </wgt>
<wgt id='1605'> +7.2061533e+01 </wgt>
<wgt id='1606'> +7.1648960e+01 </wgt>
<wgt id='1607'> +7.1515814e+01 </wgt>
<wgt id='1608'> +7.3472618e+01 </wgt>
<wgt id='1609'> +7.2791007e+01 </wgt>
<wgt id='1610'> +7.2260448e+01 </wgt>
<wgt id='1611'> +7.2818188e+01 </wgt>
<wgt id='1612'> +7.1544718e+01 </wgt>
<wgt id='1613'> +7.2233348e+01 </wgt>
<wgt id='1614'> +7.3916163e+01 </wgt>
<wgt id='1615'> +7.2929874e+01 </wgt>
<wgt id='1616'> +7.3971502e+01 </wgt>
<wgt id='1617'> +7.3021469e+01 </wgt>
<wgt id='1618'> +7.4477321e+01 </wgt>
<wgt id='1619'> +7.2506083e+01 </wgt>
<wgt id='1620'> +7.2699169e+01 </wgt>
<wgt id='1621'> +7.2313659e+01 </wgt>
<wgt id='1622'> +6.9859329e+01 </wgt>
<wgt id='1623'> +7.3694277e+01 </wgt>
<wgt id='1624'> +7.3454076e+01 </wgt>
<wgt id='1625'> +7.3275383e+01 </wgt>
<wgt id='1626'> +7.2743777e+01 </wgt>
<wgt id='1627'> +7.4111668e+01 </wgt>
<wgt id='1628'> +7.2654212e+01 </wgt>
<wgt id='1629'> +7.2312950e+01 </wgt>
<wgt id='1630'> +7.3505273e+01 </wgt>
<wgt id='1631'> +7.1291118e+01 </wgt>
<wgt id='1632'> +7.1898730e+01 </wgt>
<wgt id='1633'> +7.2478557e+01 </wgt>
<wgt id='1634'> +7.2606367e+01 </wgt>
<wgt id='1635'> +7.2940298e+01 </wgt>
<wgt id='1636'> +7.3293829e+01 </wgt>
<wgt id='1637'> +7.2612585e+01 </wgt>
<wgt id='1638'> +7.3556272e+01 </wgt>
<wgt id='1639'> +7.2114726e+01 </wgt>
<wgt id='1640'> +7.3950598e+01 </wgt>
<wgt id='1641'> +7.3713173e+01 </wgt>
<wgt id='1642'> +7.2333372e+01 </wgt>
<wgt id='1643'> +7.3008207e+01 </wgt>
<wgt id='1644'> +7.2745869e+01 </wgt>
<wgt id='1645'> +7.3561186e+01 </wgt>
<wgt id='1646'> +7.2812769e+01 </wgt>
<wgt id='1647'> +7.3200052e+01 </wgt>
<wgt id='1648'> +7.2309347e+01 </wgt>
<wgt id='1649'> +7.2012677e+01 </wgt>
<wgt id='1650'> +7.3495820e+01 </wgt>
<wgt id='1651'> +7.3018361e+01 </wgt>
<wgt id='1652'> +7.2865604e+01 </wgt>
<wgt id='1653'> +7.2187248e+01 </wgt>
<wgt id='1654'> +7.2050427e+01 </wgt>
<wgt id='1655'> +7.2457413e+01 </wgt>
<wgt id='1656'> +7.2081426e+01 </wgt>
<wgt id='1657'> +7.2567749e+01 </wgt>
<wgt id='1658'> +7.2359306e+01 </wgt>
<wgt id='1659'> +7.2916434e+01 </wgt>
<wgt id='1660'> +7.2656697e+01 </wgt>
<wgt id='1661'> +7.2725579e+01 </wgt>
<wgt id='1662'> +7.2405569e+01 </wgt>
<wgt id='1663'> +7.2641526e+01 </wgt>
<wgt id='1664'> +7.2645354e+01 </wgt>
<wgt id='1665'> +7.2541469e+01 </wgt>
<wgt id='1666'> +7.2469433e+01 </wgt>
<wgt id='1667'> +7.2666231e+01 </wgt>
<wgt id='1668'> +7.2700152e+01 </wgt>
<wgt id='1669'> +7.2398360e+01 </wgt>
<wgt id='1670'> +7.2012852e+01 </wgt>
<wgt id='1671'> +7.3309317e+01 </wgt>
<wgt id='1672'> +7.7955259e+01 </wgt>
<wgt id='1673'> +8.1362900e+01 </wgt>
<wgt id='1674'> +7.8741986e+01 </wgt>
<wgt id='1675'> +7.7761603e+01 </wgt>
<wgt id='1676'> +7.9116778e+01 </wgt>
<wgt id='1677'> +7.9478979e+01 </wgt>
<wgt id='1678'> +7.9079777e+01 </wgt>
<wgt id='1679'> +7.7247516e+01 </wgt>
<wgt id='1680'> +7.8065175e+01 </wgt>
<wgt id='1681'> +7.7733260e+01 </wgt>
<wgt id='1682'> +7.7933471e+01 </wgt>
<wgt id='1683'> +7.7191161e+01 </wgt>
<wgt id='1684'> +7.6122254e+01 </wgt>
<wgt id='1685'> +7.7663079e+01 </wgt>
<wgt id='1686'> +7.8194242e+01 </wgt>
<wgt id='1687'> +7.1151197e+01 </wgt>
<wgt id='1688'> +7.8569372e+01 </wgt>
<wgt id='1689'> +7.7494280e+01 </wgt>
<wgt id='1690'> +7.8079377e+01 </wgt>
<wgt id='1691'> +7.7659529e+01 </wgt>
<wgt id='1692'> +7.8012139e+01 </wgt>
<wgt id='1693'> +7.7972504e+01 </wgt>
<wgt id='1694'> +7.8127105e+01 </wgt>
<wgt id='1695'> +7.8044797e+01 </wgt>
<wgt id='1696'> +7.8138027e+01 </wgt>
<wgt id='1697'> +7.7895785e+01 </wgt>
<wgt id='1698'> +7.7788623e+01 </wgt>
<wgt id='1699'> +7.7907834e+01 </wgt>
<wgt id='1700'> +7.7756050e+01 </wgt>
<wgt id='1701'> +7.8000925e+01 </wgt>
<wgt id='1702'> +7.7994725e+01 </wgt>
<wgt id='1703'> +7.6441287e+01 </wgt>
<wgt id='1704'> +7.8850108e+01 </wgt>
<wgt id='1705'> +7.2656192e+01 </wgt>
<wgt id='1706'> +7.2879377e+01 </wgt>
<wgt id='1707'> +7.3321016e+01 </wgt>
<wgt id='1708'> +7.2043781e+01 </wgt>
<wgt id='1709'> +7.3525814e+01 </wgt>
<wgt id='1710'> +7.1777914e+01 </wgt>
<wgt id='1711'> +7.2506323e+01 </wgt>
<wgt id='1712'> +7.1896365e+01 </wgt>
<wgt id='1713'> +7.3209323e+01 </wgt>
<wgt id='1714'> +6.9530410e+01 </wgt>
<wgt id='1715'> +7.3079011e+01 </wgt>
<wgt id='1716'> +7.3475338e+01 </wgt>
<wgt id='1717'> +7.2105263e+01 </wgt>
<wgt id='1718'> +7.3492155e+01 </wgt>
<wgt id='1719'> +7.2827242e+01 </wgt>
<wgt id='1720'> +7.4462914e+01 </wgt>
<wgt id='1721'> +7.2412875e+01 </wgt>
<wgt id='1722'> +7.3731927e+01 </wgt>
<wgt id='1723'> +7.2764636e+01 </wgt>
<wgt id='1724'> +6.6776309e+01 </wgt>
<wgt id='1725'> +7.2581413e+01 </wgt>
<wgt id='1726'> +7.2738820e+01 </wgt>
<wgt id='1727'> +7.3185009e+01 </wgt>
<wgt id='1728'> +7.2680635e+01 </wgt>
<wgt id='1729'> +7.2370951e+01 </wgt>
<wgt id='1730'> +7.2525175e+01 </wgt>
<wgt id='1731'> +7.2610236e+01 </wgt>
<wgt id='1732'> +7.2845279e+01 </wgt>
<wgt id='1733'> +7.2265927e+01 </wgt>
<wgt id='1734'> +7.2418239e+01 </wgt>
<wgt id='1735'> +7.2659588e+01 </wgt>
<wgt id='1736'> +7.2012852e+01 </wgt>
<wgt id='1737'> +7.3309317e+01 </wgt>
<wgt id='1738'> +5.6739921e+01 </wgt>
<wgt id='1739'> +5.6864519e+01 </wgt>
<wgt id='1740'> +5.6615221e+01 </wgt>
<wgt id='1741'> +5.6530811e+01 </wgt>
<wgt id='1742'> +5.6948094e+01 </wgt>
<wgt id='1743'> +5.6859881e+01 </wgt>
<wgt id='1744'> +5.6620145e+01 </wgt>
<wgt id='1745'> +5.6029939e+01 </wgt>
<wgt id='1746'> +5.7443901e+01 </wgt>
<wgt id='1747'> +5.7208196e+01 </wgt>
<wgt id='1748'> +5.6272758e+01 </wgt>
<wgt id='1749'> +5.7165883e+01 </wgt>
<wgt id='1750'> +5.6318563e+01 </wgt>
<wgt id='1751'> +5.7008708e+01 </wgt>
<wgt id='1752'> +5.6469156e+01 </wgt>
<wgt id='1753'> +5.6935993e+01 </wgt>
<wgt id='1754'> +5.6510147e+01 </wgt>
<wgt id='1755'> +5.6811868e+01 </wgt>
<wgt id='1756'> +5.6639265e+01 </wgt>
<wgt id='1757'> +5.7633483e+01 </wgt>
<wgt id='1758'> +5.5868090e+01 </wgt>
<wgt id='1759'> +5.3563196e+01 </wgt>
<wgt id='1760'> +6.0096009e+01 </wgt>
<wgt id='1761'> +6.8829890e+01 </wgt>
<wgt id='1762'> +4.7223187e+01 </wgt>
<wgt id='1763'> +5.7311431e+01 </wgt>
<wgt id='1764'> +5.6238650e+01 </wgt>
<wgt id='1765'> +5.3874097e+01 </wgt>
<wgt id='1766'> +5.9914746e+01 </wgt>
<wgt id='1767'> +5.6739921e+01 </wgt>
<wgt id='1768'> +7.3308612e+01 </wgt>
<wgt id='1769'> +4.2418601e+01 </wgt>
<wgt id='1770'> +1.0371884e+02 </wgt>
<wgt id='1771'> +8.0010330e+01 </wgt>
<wgt id='1772'> +5.2464830e+01 </wgt>
<wgt id='1773'> +5.4155253e+01 </wgt>
<wgt id='1774'> +5.6374961e+01 </wgt>
<wgt id='1775'> +5.6459891e+01 </wgt>
<wgt id='1776'> +5.7339742e+01 </wgt>
<wgt id='1777'> +5.5551038e+01 </wgt>
<wgt id='1778'> +6.1698639e+01 </wgt>
<wgt id='1779'> +5.2272908e+01 </wgt>
<wgt id='1780'> +5.2606673e+01 </wgt>
<wgt id='1781'> +2.8725420e+01 </wgt>
<wgt id='1782'> +2.8701651e+01 </wgt>
<wgt id='1783'> +2.8668405e+01 </wgt>
<wgt id='1784'> +2.8620243e+01 </wgt>
<wgt id='1785'> +2.8749740e+01 </wgt>
<wgt id='1786'> +2.8730035e+01 </wgt>
<wgt id='1787'> +2.8640124e+01 </wgt>
<wgt id='1788'> +2.8481116e+01 </wgt>
<wgt id='1789'> +2.8887870e+01 </wgt>
<wgt id='1790'> +2.8763798e+01 </wgt>
<wgt id='1791'> +2.8609060e+01 </wgt>
<wgt id='1792'> +2.8749322e+01 </wgt>
<wgt id='1793'> +2.8622741e+01 </wgt>
<wgt id='1794'> +2.8657557e+01 </wgt>
<wgt id='1795'> +2.8711954e+01 </wgt>
<wgt id='1796'> +2.8751979e+01 </wgt>
<wgt id='1797'> +2.8590163e+01 </wgt>
<wgt id='1798'> +2.8454840e+01 </wgt>
<wgt id='1799'> +2.8917276e+01 </wgt>
<wgt id='1800'> +2.8819336e+01 </wgt>
<wgt id='1801'> +2.8558622e+01 </wgt>
<wgt id='1802'> +2.9792770e+01 </wgt>
<wgt id='1803'> +2.7621627e+01 </wgt>
<wgt id='1804'> +3.1189610e+01 </wgt>
<wgt id='1805'> +2.6675654e+01 </wgt>
<wgt id='1806'> +3.5798503e+01 </wgt>
<wgt id='1807'> +2.4084938e+01 </wgt>
<wgt id='1808'> +3.3121987e+01 </wgt>
<wgt id='1809'> +2.5360624e+01 </wgt>
<wgt id='1810'> +2.8720446e+01 </wgt>
<wgt id='1811'> +3.6062793e+01 </wgt>
<wgt id='1812'> +2.3379348e+01 </wgt>
<wgt id='1813'> +4.7399200e+01 </wgt>
<wgt id='1814'> +3.4655535e+01 </wgt>
<wgt id='1815'> +3.5327834e+01 </wgt>
<wgt id='1816'> +3.2273008e+01 </wgt>
<wgt id='1817'> +2.8638057e+01 </wgt>
<wgt id='1818'> +2.7116400e+01 </wgt>
<wgt id='1819'> +3.4258508e+01 </wgt>
<wgt id='1820'> +3.7904037e+01 </wgt>
<wgt id='1821'> +3.6139500e+01 </wgt>
<wgt id='1822'> +2.2728827e+01 </wgt>
<wgt id='1823'> +2.9362064e+01 </wgt>
<wgt id='1824'> +7.3546412e+01 </wgt>
<wgt id='1825'> +7.3504689e+01 </wgt>
<wgt id='1826'> +7.3462049e+01 </wgt>
<wgt id='1827'> +7.3420238e+01 </wgt>
<wgt id='1828'> +7.3377959e+01 </wgt>
<wgt id='1829'> +7.3336022e+01 </wgt>
<wgt id='1830'> +7.3293794e+01 </wgt>
<wgt id='1831'> +7.3251563e+01 </wgt>
<wgt id='1832'> +7.3209206e+01 </wgt>
<wgt id='1833'> +7.3167541e+01 </wgt>
<wgt id='1834'> +7.3125694e+01 </wgt>
<wgt id='1835'> +7.3083259e+01 </wgt>
<wgt id='1836'> +7.3041245e+01 </wgt>
<wgt id='1837'> +7.2999172e+01 </wgt>
<wgt id='1838'> +7.2957348e+01 </wgt>
<wgt id='1839'> +7.2914961e+01 </wgt>
<wgt id='1840'> +7.2873225e+01 </wgt>
<wgt id='1841'> +7.2831198e+01 </wgt>
<wgt id='1842'> +7.2789180e+01 </wgt>
<wgt id='1843'> +7.2747012e+01 </wgt>
<wgt id='1844'> +7.2705176e+01 </wgt>
<wgt id='1845'> +7.2662861e+01 </wgt>
<wgt id='1846'> +7.2621048e+01 </wgt>
<wgt id='1847'> +7.2579388e+01 </wgt>
<wgt id='1848'> +7.2537243e+01 </wgt>
<wgt id='1849'> +7.2495410e+01 </wgt>
<wgt id='1850'> +7.2453265e+01 </wgt>
<wgt id='1851'> +7.2411320e+01 </wgt>
<wgt id='1852'> +7.2369173e+01 </wgt>
<wgt id='1853'> +7.2327531e+01 </wgt>
<wgt id='1854'> +7.2285413e+01 </wgt>
<wgt id='1855'> +7.2090015e+01 </wgt>
<wgt id='1856'> +7.2513401e+01 </wgt>
<wgt id='1857'> +7.2617919e+01 </wgt>
<wgt id='1858'> +7.1093242e+01 </wgt>
<wgt id='1859'> +7.2855427e+01 </wgt>
<wgt id='1860'> +7.2600062e+01 </wgt>
<wgt id='1861'> +7.1870119e+01 </wgt>
<wgt id='1862'> +7.2635910e+01 </wgt>
<wgt id='1863'> +7.2631230e+01 </wgt>
<wgt id='1864'> +7.1883247e+01 </wgt>
<wgt id='1865'> +7.1049124e+01 </wgt>
<wgt id='1866'> +7.2905597e+01 </wgt>
<wgt id='1867'> +7.1274925e+01 </wgt>
<wgt id='1868'> +7.0531676e+01 </wgt>
<wgt id='1869'> +7.2652676e+01 </wgt>
<wgt id='1870'> +7.2628717e+01 </wgt>
<wgt id='1871'> +7.2051941e+01 </wgt>
<wgt id='1872'> +7.2387750e+01 </wgt>
<wgt id='1873'> +7.3326173e+01 </wgt>
<wgt id='1874'> +7.1273234e+01 </wgt>
<wgt id='1875'> +7.1659476e+01 </wgt>
<wgt id='1876'> +7.2541232e+01 </wgt>
<wgt id='1877'> +7.2293232e+01 </wgt>
<wgt id='1878'> +7.2378668e+01 </wgt>
<wgt id='1879'> +7.3043232e+01 </wgt>
<wgt id='1880'> +7.2743796e+01 </wgt>
<wgt id='1881'> +7.2335987e+01 </wgt>
<wgt id='1882'> +7.1684189e+01 </wgt>
<wgt id='1883'> +7.1910426e+01 </wgt>
<wgt id='1884'> +7.2377468e+01 </wgt>
<wgt id='1885'> +7.2169440e+01 </wgt>
<wgt id='1886'> +7.1738363e+01 </wgt>
<wgt id='1887'> +7.1761354e+01 </wgt>
<wgt id='1888'> +7.0814154e+01 </wgt>
<wgt id='1889'> +7.1375254e+01 </wgt>
<wgt id='1890'> +7.2652268e+01 </wgt>
<wgt id='1891'> +7.1499133e+01 </wgt>
<wgt id='1892'> +7.1090871e+01 </wgt>
<wgt id='1893'> +7.0955792e+01 </wgt>
<wgt id='1894'> +7.2897161e+01 </wgt>
<wgt id='1895'> +7.2220338e+01 </wgt>
<wgt id='1896'> +7.1695507e+01 </wgt>
<wgt id='1897'> +7.2247473e+01 </wgt>
<wgt id='1898'> +7.0986636e+01 </wgt>
<wgt id='1899'> +7.1671146e+01 </wgt>
<wgt id='1900'> +7.3338715e+01 </wgt>
<wgt id='1901'> +7.2356163e+01 </wgt>
<wgt id='1902'> +7.3392736e+01 </wgt>
<wgt id='1903'> +7.2451800e+01 </wgt>
<wgt id='1904'> +7.3896550e+01 </wgt>
<wgt id='1905'> +7.1943261e+01 </wgt>
<wgt id='1906'> +7.2133373e+01 </wgt>
<wgt id='1907'> +7.1749396e+01 </wgt>
<wgt id='1908'> +6.9311276e+01 </wgt>
<wgt id='1909'> +7.3120095e+01 </wgt>
<wgt id='1910'> +7.2877775e+01 </wgt>
<wgt id='1911'> +7.2701158e+01 </wgt>
<wgt id='1912'> +7.2175484e+01 </wgt>
<wgt id='1913'> +7.3532877e+01 </wgt>
<wgt id='1914'> +7.2087796e+01 </wgt>
<wgt id='1915'> +7.1748998e+01 </wgt>
<wgt id='1916'> +7.2928088e+01 </wgt>
<wgt id='1917'> +7.0733915e+01 </wgt>
<wgt id='1918'> +7.1339528e+01 </wgt>
<wgt id='1919'> +7.1910528e+01 </wgt>
<wgt id='1920'> +7.2042487e+01 </wgt>
<wgt id='1921'> +7.2369482e+01 </wgt>
<wgt id='1922'> +7.2722477e+01 </wgt>
<wgt id='1923'> +7.2043890e+01 </wgt>
<wgt id='1924'> +7.2983346e+01 </wgt>
<wgt id='1925'> +7.1550941e+01 </wgt>
<wgt id='1926'> +7.3376241e+01 </wgt>
<wgt id='1927'> +7.3140192e+01 </wgt>
<wgt id='1928'> +7.1768316e+01 </wgt>
<wgt id='1929'> +7.2435776e+01 </wgt>
<wgt id='1930'> +7.2176434e+01 </wgt>
<wgt id='1931'> +7.2990362e+01 </wgt>
<wgt id='1932'> +7.2243295e+01 </wgt>
<wgt id='1933'> +7.2629156e+01 </wgt>
<wgt id='1934'> +7.1743727e+01 </wgt>
<wgt id='1935'> +7.1444165e+01 </wgt>
<wgt id='1936'> +7.2925738e+01 </wgt>
<wgt id='1937'> +7.2450291e+01 </wgt>
<wgt id='1938'> +7.2292193e+01 </wgt>
<wgt id='1939'> +7.1622450e+01 </wgt>
<wgt id='1940'> +7.1487457e+01 </wgt>
<wgt id='1941'> +7.1886711e+01 </wgt>
<wgt id='1942'> +7.1514988e+01 </wgt>
<wgt id='1943'> +7.2000952e+01 </wgt>
<wgt id='1944'> +7.1789709e+01 </wgt>
<wgt id='1945'> +7.2347752e+01 </wgt>
<wgt id='1946'> +7.2088922e+01 </wgt>
<wgt id='1947'> +7.2159378e+01 </wgt>
<wgt id='1948'> +7.1841478e+01 </wgt>
<wgt id='1949'> +7.2073027e+01 </wgt>
<wgt id='1950'> +7.2080042e+01 </wgt>
<wgt id='1951'> +7.1971743e+01 </wgt>
<wgt id='1952'> +7.1900467e+01 </wgt>
<wgt id='1953'> +7.2096772e+01 </wgt>
<wgt id='1954'> +7.2132569e+01 </wgt>
<wgt id='1955'> +7.1831355e+01 </wgt>
<wgt id='1956'> +7.2089554e+01 </wgt>
<wgt id='1957'> +7.2092620e+01 </wgt>
<wgt id='1958'> +7.2090522e+01 </wgt>
<wgt id='1959'> +7.2090598e+01 </wgt>
<wgt id='1960'> +7.2091484e+01 </wgt>
<wgt id='1961'> +7.2090229e+01 </wgt>
<wgt id='1962'> +7.2093205e+01 </wgt>
</rwgt>
</event>
<event npLO=" -1 " npNLO=" 1 ">
 7      1 -1.5146096e+02 1.33237720e+01 7.54677110e-03 1.66471340e-01
        5 -1    0    0  502    0 +0.0000000000e+00 +0.0000000000e+00 +2.4053187000e+01 2.4053187000e+01 0.0000000000e+00 0.0000e+00 9.0000e+00
       -5 -1    0    0    0  501 +0.0000000000e+00 +0.0000000000e+00 -1.2380400000e+02 1.2380400000e+02 0.0000000000e+00 0.0000e+00 9.0000e+00
       23  2    1    2    0    0 -8.9950315000e+00 -9.8291566000e+00 -9.4134561000e+01 1.3339810000e+02 9.3574651000e+01 0.0000e+00 0.0000e+00
       13  1    3    3    0    0 +1.5313524000e+01 +1.3307872000e+01 -2.7943333000e+01 3.4531628000e+01 0.0000000000e+00 0.0000e+00 9.0000e+00
      -13  1    3    3    0    0 -3.1814636000e+01 -4.1743541000e+01 -4.0643313000e+01 6.6382025000e+01 0.0000000000e+00 0.0000e+00 9.0000e+00
       22  1    3    3    0    0 +7.5060803000e+00 +1.8606512000e+01 -2.5547914000e+01 3.2484450000e+01 0.0000000000e+00 0.0000e+00 9.0000e+00
       21  1    1    2  502  501 +8.9950315000e+00 +9.8291566000e+00 -5.6162574000e+00 1.4459089000e+01 0.0000000000e+00 0.0000e+00 9.0000e+00
#aMCatNLO 1  0  0  1  6 0.15685696E+01 0.00000000E+00 -9  7  0 0.00000000E+00 0.00000000E+00 0.00000000E+00 0.00000000E+00 0.00000000E+00
<rwgt>
<wgt id='1001'> -1.5146000e+02 </wgt>
<wgt id='1002'> -1.5146000e+02 </wgt>
<wgt id='1003'> -1.3763000e+02 </wgt>
<wgt id='1004'> -1.5175000e+02 </wgt>
<wgt id='1005'> -1.5073000e+02 </wgt>
<wgt id='1006'> -1.4930000e+02 </wgt>
<wgt id='1007'> -1.3173000e+02 </wgt>
<wgt id='1008'> -1.5308000e+02 </wgt>
<wgt id='1009'> -1.5368000e+02 </wgt>
<wgt id='1010'> -1.5214000e+02 </wgt>
<wgt id='1011'> -1.5181000e+02 </wgt>
<wgt id='1012'> -1.4567000e+02 </wgt>
<wgt id='1013'> -1.4796000e+02 </wgt>
<wgt id='1014'> -1.5473000e+02 </wgt>
<wgt id='1015'> -1.5444000e+02 </wgt>
<wgt id='1016'> -1.4714000e+02 </wgt>
<wgt id='1017'> -1.5318000e+02 </wgt>
<wgt id='1018'> -1.5409000e+02 </wgt>
<wgt id='1019'> -1.4899000e+02 </wgt>
<wgt id='1020'> -1.5010000e+02 </wgt>
<wgt id='1021'> -1.5387000e+02 </wgt>
<wgt id='1022'> -1.5445000e+02 </wgt>
<wgt id='1023'> -1.5224000e+02 </wgt>
<wgt id='1024'> -1.5036000e+02 </wgt>
<wgt id='1025'> -1.6427000e+02 </wgt>
<wgt id='1026'> -1.5038000e+02 </wgt>
<wgt id='1027'> -1.5355000e+02 </wgt>
<wgt id='1028'> -1.4872000e+02 </wgt>
<wgt id='1029'> -1.4986000e+02 </wgt>
<wgt id='1030'> -1.4997000e+02 </wgt>
<wgt id='1031'> -1.5025000e+02 </wgt>
<wgt id='1032'> -1.5528000e+02 </wgt>
<wgt id='1033'> -1.5079000e+02 </wgt>
<wgt id='1034'> -1.4651000e+02 </wgt>
<wgt id='1035'> -1.5337000e+02 </wgt>
<wgt id='1036'> -1.5258000e+02 </wgt>
<wgt id='1037'> -1.5596000e+02 </wgt>
<wgt id='1038'> -1.5568000e+02 </wgt>
<wgt id='1039'> -1.5423000e+02 </wgt>
<wgt id='1040'> -1.5248000e+02 </wgt>
<wgt id='1041'> -1.4633000e+02 </wgt>
<wgt id='1042'> -1.5398000e+02 </wgt>
<wgt id='1043'> -1.5123000e+02 </wgt>
<wgt id='1044'> -1.5305000e+02 </wgt>
<wgt id='1045'> -1.5325000e+02 </wgt>
<wgt id='1046'> -1.5025000e+02 </wgt>
<wgt id='1047'> -1.5264000e+02 </wgt>
<wgt id='1048'> -1.5359000e+02 </wgt>
<wgt id='1049'> -1.4884000e+02 </wgt>
<wgt id='1050'> -1.4882000e+02 </wgt>
<wgt id='1051'> -1.5165000e+02 </wgt>
<wgt id='1052'> -1.5163000e+02 </wgt>
<wgt id='1053'> -1.5145000e+02 </wgt>
<wgt id='1054'> -1.5037000e+02 </wgt>
<wgt id='1055'> -1.5388000e+02 </wgt>
<wgt id='1056'> -1.5163000e+02 </wgt>
<wgt id='1057'> -1.5093000e+02 </wgt>
<wgt id='1058'> -1.4739000e+02 </wgt>
<wgt id='1059'> -1.5737000e+02 </wgt>
<wgt id='1060'> -1.4980000e+02 </wgt>
<wgt id='1061'> -1.5382000e+02 </wgt>
<wgt id='1062'> -1.5091000e+02 </wgt>
<wgt id='1063'> -1.5269000e+02 </wgt>
<wgt id='1064'> -1.5185000e+02 </wgt>
<wgt id='1065'> -1.5396000e+02 </wgt>
<wgt id='1066'> -1.4865000e+02 </wgt>
<wgt id='1067'> -1.5315000e+02 </wgt>
<wgt id='1068'> -1.5242000e+02 </wgt>
<wgt id='1069'> -1.6025000e+02 </wgt>
<wgt id='1070'> -1.4886000e+02 </wgt>
<wgt id='1071'> -1.4717000e+02 </wgt>
<wgt id='1072'> -1.5145000e+02 </wgt>
<wgt id='1073'> -1.5454000e+02 </wgt>
<wgt id='1074'> -1.5111000e+02 </wgt>
<wgt id='1075'> -1.3984000e+02 </wgt>
<wgt id='1076'> -1.5276000e+02 </wgt>
<wgt id='1077'> -1.4995000e+02 </wgt>
<wgt id='1078'> -1.4742000e+02 </wgt>
<wgt id='1079'> -1.5315000e+02 </wgt>
<wgt id='1080'> -1.5760000e+02 </wgt>
<wgt id='1081'> -1.5041000e+02 </wgt>
<wgt id='1082'> -1.5245000e+02 </wgt>
<wgt id='1083'> -1.5252000e+02 </wgt>
<wgt id='1084'> -1.4963000e+02 </wgt>
<wgt id='1085'> -1.5318000e+02 </wgt>
<wgt id='1086'> -1.5177000e+02 </wgt>
<wgt id='1087'> -1.4692000e+02 </wgt>
<wgt id='1088'> -1.5072000e+02 </wgt>
<wgt id='1089'> -1.5094000e+02 </wgt>
<wgt id='1090'> -1.5155000e+02 </wgt>
<wgt id='1091'> -1.5580000e+02 </wgt>
<wgt id='1092'> -1.5058000e+02 </wgt>
<wgt id='1093'> -1.4777000e+02 </wgt>
<wgt id='1094'> -1.5475000e+02 </wgt>
<wgt id='1095'> -1.5042000e+02 </wgt>
<wgt id='1096'> -1.5542000e+02 </wgt>
<wgt id='1097'> -1.4878000e+02 </wgt>
<wgt id='1098'> -1.5415000e+02 </wgt>
<wgt id='1099'> -1.5187000e+02 </wgt>
<wgt id='1100'> -1.5792000e+02 </wgt>
<wgt id='1101'> -1.5576000e+02 </wgt>
<wgt id='1102'> -1.5243000e+02 </wgt>
<wgt id='1103'> -1.4565000e+02 </wgt>
<wgt id='1104'> -1.5618000e+02 </wgt>
<wgt id='1105'> -1.5146096e+02 </wgt>
<wgt id='1106'> -5.6638112e+01 </wgt>
<wgt id='1107'> -1.0624760e+02 </wgt>
<wgt id='1108'> -1.0677979e+02 </wgt>
<wgt id='1109'> -7.9882649e+01 </wgt>
<wgt id='1110'> -1.4975894e+02 </wgt>
<wgt id='1111'> -4.6547669e+01 </wgt>
<wgt id='1112'> -3.4799351e+01 </wgt>
<wgt id='1113'> -6.5334339e+01 </wgt>
<wgt id='1114'> -7.0538137e+01 </wgt>
<wgt id='1115'> -6.8723954e+01 </wgt>
<wgt id='1116'> -7.0149369e+01 </wgt>
<wgt id='1117'> -7.0845801e+01 </wgt>
<wgt id='1118'> -7.0729470e+01 </wgt>
<wgt id='1119'> -7.1096753e+01 </wgt>
<wgt id='1120'> -6.9947122e+01 </wgt>
<wgt id='1121'> -6.9956380e+01 </wgt>
<wgt id='1122'> -7.0245070e+01 </wgt>
<wgt id='1123'> -7.1619768e+01 </wgt>
<wgt id='1124'> -7.1719305e+01 </wgt>
<wgt id='1125'> -7.1881446e+01 </wgt>
<wgt id='1126'> -6.9056738e+01 </wgt>
<wgt id='1127'> -7.0516115e+01 </wgt>
<wgt id='1128'> -6.9048659e+01 </wgt>
<wgt id='1129'> -7.2617326e+01 </wgt>
<wgt id='1130'> -7.2325393e+01 </wgt>
<wgt id='1131'> -7.1881367e+01 </wgt>
<wgt id='1132'> -7.0477846e+01 </wgt>
<wgt id='1133'> -7.0361782e+01 </wgt>
<wgt id='1134'> -7.1702243e+01 </wgt>
<wgt id='1135'> -6.8612945e+01 </wgt>
<wgt id='1136'> -7.0725692e+01 </wgt>
<wgt id='1137'> -7.0046724e+01 </wgt>
<wgt id='1138'> -6.9859144e+01 </wgt>
<wgt id='1139'> -6.9647630e+01 </wgt>
<wgt id='1140'> -7.1553357e+01 </wgt>
<wgt id='1141'> -7.0592700e+01 </wgt>
<wgt id='1142'> -6.8599445e+01 </wgt>
<wgt id='1143'> -7.1364952e+01 </wgt>
<wgt id='1144'> -7.1349513e+01 </wgt>
<wgt id='1145'> -7.0255940e+01 </wgt>
<wgt id='1146'> -7.0145470e+01 </wgt>
<wgt id='1147'> -6.9414247e+01 </wgt>
<wgt id='1148'> -6.9264183e+01 </wgt>
<wgt id='1149'> -7.2671574e+01 </wgt>
<wgt id='1150'> -6.9874621e+01 </wgt>
<wgt id='1151'> -7.2137631e+01 </wgt>
<wgt id='1152'> -7.0694942e+01 </wgt>
<wgt id='1153'> -7.0014160e+01 </wgt>
<wgt id='1154'> -7.0212037e+01 </wgt>
<wgt id='1155'> -7.1207420e+01 </wgt>
<wgt id='1156'> -6.8362311e+01 </wgt>
<wgt id='1157'> -7.0323159e+01 </wgt>
<wgt id='1158'> -6.8568115e+01 </wgt>
<wgt id='1159'> -7.0718457e+01 </wgt>
<wgt id='1160'> -7.1349897e+01 </wgt>
<wgt id='1161'> -6.7746606e+01 </wgt>
<wgt id='1162'> -6.9446659e+01 </wgt>
<wgt id='1163'> -7.1168209e+01 </wgt>
<wgt id='1164'> -7.1720229e+01 </wgt>
<wgt id='1165'> -6.9247751e+01 </wgt>
<wgt id='1166'> -6.9917788e+01 </wgt>
<wgt id='1167'> -7.0244840e+01 </wgt>
<wgt id='1168'> -6.9971951e+01 </wgt>
<wgt id='1169'> -6.9702130e+01 </wgt>
<wgt id='1170'> -7.0078344e+01 </wgt>
<wgt id='1171'> -7.0827330e+01 </wgt>
<wgt id='1172'> -6.9789722e+01 </wgt>
<wgt id='1173'> -7.3117960e+01 </wgt>
<wgt id='1174'> -7.0869009e+01 </wgt>
<wgt id='1175'> -7.0249653e+01 </wgt>
<wgt id='1176'> -7.0521469e+01 </wgt>
<wgt id='1177'> -7.0643203e+01 </wgt>
<wgt id='1178'> -6.9887885e+01 </wgt>
<wgt id='1179'> -7.0542450e+01 </wgt>
<wgt id='1180'> -7.0377581e+01 </wgt>
<wgt id='1181'> -6.8122006e+01 </wgt>
<wgt id='1182'> -7.1724872e+01 </wgt>
<wgt id='1183'> -6.9463788e+01 </wgt>
<wgt id='1184'> -6.8304355e+01 </wgt>
<wgt id='1185'> -7.2323403e+01 </wgt>
<wgt id='1186'> -7.2517357e+01 </wgt>
<wgt id='1187'> -7.1808456e+01 </wgt>
<wgt id='1188'> -7.2722111e+01 </wgt>
<wgt id='1189'> -7.1525824e+01 </wgt>
<wgt id='1190'> -7.1732543e+01 </wgt>
<wgt id='1191'> -7.0160470e+01 </wgt>
<wgt id='1192'> -7.0559973e+01 </wgt>
<wgt id='1193'> -7.0888777e+01 </wgt>
<wgt id='1194'> -6.9239681e+01 </wgt>
<wgt id='1195'> -6.8566778e+01 </wgt>
<wgt id='1196'> -7.2325393e+01 </wgt>
<wgt id='1197'> -6.9773639e+01 </wgt>
<wgt id='1198'> -7.1254239e+01 </wgt>
<wgt id='1199'> -7.2524295e+01 </wgt>
<wgt id='1200'> -6.7546972e+01 </wgt>
<wgt id='1201'> -7.1856143e+01 </wgt>
<wgt id='1202'> -7.0667895e+01 </wgt>
<wgt id='1203'> -7.3529287e+01 </wgt>
<wgt id='1204'> -6.8781240e+01 </wgt>
<wgt id='1205'> -6.9463394e+01 </wgt>
<wgt id='1206'> -7.2233854e+01 </wgt>
<wgt id='1207'> -7.2031751e+01 </wgt>
<wgt id='1208'> -7.0215335e+01 </wgt>
<wgt id='1209'> -6.9925335e+01 </wgt>
<wgt id='1210'> -6.9703319e+01 </wgt>
<wgt id='1211'> -6.9230068e+01 </wgt>
<wgt id='1212'> -7.1636002e+01 </wgt>
<wgt id='1213'> -7.1371418e+01 </wgt>
<wgt id='1214'> -7.1904501e+01 </wgt>
<wgt id='1215'> -7.8394134e+01 </wgt>
<wgt id='1216'> -6.8220024e+01 </wgt>
<wgt id='1217'> -6.8466726e+01 </wgt>
<wgt id='1218'> -6.7937787e+01 </wgt>
<wgt id='1219'> -6.8473763e+01 </wgt>
<wgt id='1220'> -6.8370975e+01 </wgt>
<wgt id='1221'> -6.8532049e+01 </wgt>
<wgt id='1222'> -6.8312959e+01 </wgt>
<wgt id='1223'> -6.8340028e+01 </wgt>
<wgt id='1224'> -6.8025833e+01 </wgt>
<wgt id='1225'> -6.8088484e+01 </wgt>
<wgt id='1226'> -6.7963286e+01 </wgt>
<wgt id='1227'> -6.8378415e+01 </wgt>
<wgt id='1228'> -6.8714326e+01 </wgt>
<wgt id='1229'> -6.7710177e+01 </wgt>
<wgt id='1230'> -6.8474135e+01 </wgt>
<wgt id='1231'> -6.8414441e+01 </wgt>
<wgt id='1232'> -6.8270345e+01 </wgt>
<wgt id='1233'> -6.8496034e+01 </wgt>
<wgt id='1234'> -6.8349147e+01 </wgt>
<wgt id='1235'> -6.7968769e+01 </wgt>
<wgt id='1236'> -6.8091206e+01 </wgt>
<wgt id='1237'> -6.7999796e+01 </wgt>
<wgt id='1238'> -6.8205698e+01 </wgt>
<wgt id='1239'> -6.8093789e+01 </wgt>
<wgt id='1240'> -6.8117228e+01 </wgt>
<wgt id='1241'> -6.8224275e+01 </wgt>
<wgt id='1242'> -6.8301146e+01 </wgt>
<wgt id='1243'> -6.8243157e+01 </wgt>
<wgt id='1244'> -6.8077457e+01 </wgt>
<wgt id='1245'> -6.8205392e+01 </wgt>
<wgt id='1246'> -6.8302422e+01 </wgt>
<wgt id='1247'> -6.8256975e+01 </wgt>
<wgt id='1248'> -6.8243339e+01 </wgt>
<wgt id='1249'> -6.8249687e+01 </wgt>
<wgt id='1250'> -6.8249689e+01 </wgt>
<wgt id='1251'> -6.8273884e+01 </wgt>
<wgt id='1252'> -6.8237503e+01 </wgt>
<wgt id='1253'> -6.8215851e+01 </wgt>
<wgt id='1254'> -6.8219436e+01 </wgt>
<wgt id='1255'> -6.8258368e+01 </wgt>
<wgt id='1256'> -6.8200829e+01 </wgt>
<wgt id='1257'> -6.8208980e+01 </wgt>
<wgt id='1258'> -6.8180492e+01 </wgt>
<wgt id='1259'> -6.8177104e+01 </wgt>
<wgt id='1260'> -6.8251888e+01 </wgt>
<wgt id='1261'> -6.8248447e+01 </wgt>
<wgt id='1262'> -6.8238837e+01 </wgt>
<wgt id='1263'> -6.8215492e+01 </wgt>
<wgt id='1264'> -6.8228495e+01 </wgt>
<wgt id='1265'> -6.8204098e+01 </wgt>
<wgt id='1266'> -6.8204366e+01 </wgt>
<wgt id='1267'> -6.8259648e+01 </wgt>
<wgt id='1268'> -6.8206622e+01 </wgt>
<wgt id='1269'> -6.8210749e+01 </wgt>
<wgt id='1270'> -6.8218742e+01 </wgt>
<wgt id='1271'> -6.8215020e+01 </wgt>
<wgt id='1272'> -6.8229449e+01 </wgt>
<wgt id='1273'> -6.8222038e+01 </wgt>
<wgt id='1274'> -6.8200448e+01 </wgt>
<wgt id='1275'> -6.8225838e+01 </wgt>
<wgt id='1276'> -6.8230133e+01 </wgt>
<wgt id='1277'> -6.8239856e+01 </wgt>
<wgt id='1278'> -6.8232025e+01 </wgt>
<wgt id='1279'> -6.8229338e+01 </wgt>
<wgt id='1280'> -6.8214539e+01 </wgt>
<wgt id='1281'> -6.8214426e+01 </wgt>
<wgt id='1282'> -6.8228870e+01 </wgt>
<wgt id='1283'> -6.8200464e+01 </wgt>
<wgt id='1284'> -6.8225915e+01 </wgt>
<wgt id='1285'> -6.8212650e+01 </wgt>
<wgt id='1286'> -6.8216706e+01 </wgt>
<wgt id='1287'> -6.8214745e+01 </wgt>
<wgt id='1288'> -6.8221670e+01 </wgt>
<wgt id='1289'> -6.8207539e+01 </wgt>
<wgt id='1290'> -6.8230978e+01 </wgt>
<wgt id='1291'> -6.8215336e+01 </wgt>
<wgt id='1292'> -6.8224923e+01 </wgt>
<wgt id='1293'> -6.8228474e+01 </wgt>
<wgt id='1294'> -6.8223721e+01 </wgt>
<wgt id='1295'> -6.8223772e+01 </wgt>
<wgt id='1296'> -6.8210572e+01 </wgt>
<wgt id='1297'> -6.8219355e+01 </wgt>
<wgt id='1298'> -6.8214594e+01 </wgt>
<wgt id='1299'> -6.8222710e+01 </wgt>
<wgt id='1300'> -6.8217633e+01 </wgt>
<wgt id='1301'> -6.8225171e+01 </wgt>
<wgt id='1302'> -6.8216949e+01 </wgt>
<wgt id='1303'> -6.8215543e+01 </wgt>
<wgt id='1304'> -6.8218345e+01 </wgt>
<wgt id='1305'> -6.8220450e+01 </wgt>
<wgt id='1306'> -6.8221777e+01 </wgt>
<wgt id='1307'> -6.8219943e+01 </wgt>
<wgt id='1308'> -6.8221595e+01 </wgt>
<wgt id='1309'> -6.8221120e+01 </wgt>
<wgt id='1310'> -6.8225262e+01 </wgt>
<wgt id='1311'> -6.8219417e+01 </wgt>
<wgt id='1312'> -6.8216694e+01 </wgt>
<wgt id='1313'> -6.8215907e+01 </wgt>
<wgt id='1314'> -6.8218847e+01 </wgt>
<wgt id='1315'> -6.8221886e+01 </wgt>
<wgt id='1316'> -6.8221430e+01 </wgt>
<wgt id='1317'> -6.3574723e+01 </wgt>
<wgt id='1318'> -7.3402610e+01 </wgt>
<wgt id='1319'> -5.4611276e+01 </wgt>
<wgt id='1320'> -6.8006953e+01 </wgt>
<wgt id='1321'> -6.8046244e+01 </wgt>
<wgt id='1322'> -6.8205181e+01 </wgt>
<wgt id='1323'> -6.9545516e+01 </wgt>
<wgt id='1324'> -6.7296965e+01 </wgt>
<wgt id='1325'> -6.8223316e+01 </wgt>
<wgt id='1326'> -6.7793941e+01 </wgt>
<wgt id='1327'> -6.8871776e+01 </wgt>
<wgt id='1328'> -6.7615507e+01 </wgt>
<wgt id='1329'> -6.6464742e+01 </wgt>
<wgt id='1330'> -6.9081870e+01 </wgt>
<wgt id='1331'> -6.9283820e+01 </wgt>
<wgt id='1332'> -6.7248373e+01 </wgt>
<wgt id='1333'> -6.5154091e+01 </wgt>
<wgt id='1334'> -6.9684987e+01 </wgt>
<wgt id='1335'> -6.8869395e+01 </wgt>
<wgt id='1336'> -6.7435533e+01 </wgt>
<wgt id='1337'> -6.7121674e+01 </wgt>
<wgt id='1338'> -6.9058359e+01 </wgt>
<wgt id='1339'> -6.9001990e+01 </wgt>
<wgt id='1340'> -6.6894204e+01 </wgt>
<wgt id='1341'> -6.8216919e+01 </wgt>
<wgt id='1342'> -6.7558477e+01 </wgt>
<wgt id='1343'> -6.7599575e+01 </wgt>
<wgt id='1344'> -6.8369527e+01 </wgt>
<wgt id='1345'> -6.7050176e+01 </wgt>
<wgt id='1346'> -6.8878766e+01 </wgt>
<wgt id='1347'> -6.7754075e+01 </wgt>
<wgt id='1348'> -6.8345436e+01 </wgt>
<wgt id='1349'> -6.7425406e+01 </wgt>
<wgt id='1350'> -6.8207607e+01 </wgt>
<wgt id='1351'> -6.8133939e+01 </wgt>
<wgt id='1352'> -6.7841212e+01 </wgt>
<wgt id='1353'> -6.7920268e+01 </wgt>
<wgt id='1354'> -6.8181356e+01 </wgt>
<wgt id='1355'> -6.9088097e+01 </wgt>
<wgt id='1356'> -6.6961929e+01 </wgt>
<wgt id='1357'> -6.8616807e+01 </wgt>
<wgt id='1358'> -6.7001921e+01 </wgt>
<wgt id='1359'> -6.7969510e+01 </wgt>
<wgt id='1360'> -6.7937210e+01 </wgt>
<wgt id='1361'> -6.8625023e+01 </wgt>
<wgt id='1362'> -6.7418332e+01 </wgt>
<wgt id='1363'> -6.8692336e+01 </wgt>
<wgt id='1364'> -6.7330131e+01 </wgt>
<wgt id='1365'> -6.7039634e+01 </wgt>
<wgt id='1366'> -6.7743890e+01 </wgt>
<wgt id='1367'> -6.7145369e+01 </wgt>
<wgt id='1368'> -6.8590064e+01 </wgt>
<wgt id='1369'> -6.8130509e+01 </wgt>
<wgt id='1370'> -6.6722623e+01 </wgt>
<wgt id='1371'> -6.7891447e+01 </wgt>
<wgt id='1372'> -6.7875808e+01 </wgt>
<wgt id='1373'> -6.6113706e+01 </wgt>
<wgt id='1374'> -6.8475259e+01 </wgt>
<wgt id='1375'> -6.7407068e+01 </wgt>
<wgt id='1376'> -6.8694432e+01 </wgt>
<wgt id='1377'> -6.3180379e+01 </wgt>
<wgt id='1378'> -7.2969160e+01 </wgt>
<wgt id='1379'> -6.9954896e+01 </wgt>
<wgt id='1380'> -6.5162449e+01 </wgt>
<wgt id='1381'> -7.4773934e+01 </wgt>
<wgt id='1382'> -4.9456715e+01 </wgt>
<wgt id='1383'> -7.0292768e+01 </wgt>
<wgt id='1384'> -7.1264017e+01 </wgt>
<wgt id='1385'> -9.5824974e+01 </wgt>
<wgt id='1386'> -9.5966067e+01 </wgt>
<wgt id='1387'> -9.5660897e+01 </wgt>
<wgt id='1388'> -9.5209143e+01 </wgt>
<wgt id='1389'> -9.6877741e+01 </wgt>
<wgt id='1390'> -9.5661592e+01 </wgt>
<wgt id='1391'> -9.6011670e+01 </wgt>
<wgt id='1392'> -9.6084599e+01 </wgt>
<wgt id='1393'> -9.5636403e+01 </wgt>
<wgt id='1394'> -9.5322819e+01 </wgt>
<wgt id='1395'> -9.6442446e+01 </wgt>
<wgt id='1396'> -9.4837019e+01 </wgt>
<wgt id='1397'> -9.6331374e+01 </wgt>
<wgt id='1398'> -9.6005146e+01 </wgt>
<wgt id='1399'> -9.5677088e+01 </wgt>
<wgt id='1400'> -9.5607564e+01 </wgt>
<wgt id='1401'> -9.5978387e+01 </wgt>
<wgt id='1402'> -9.5570604e+01 </wgt>
<wgt id='1403'> -9.5935203e+01 </wgt>
<wgt id='1404'> -9.6897743e+01 </wgt>
<wgt id='1405'> -9.5299483e+01 </wgt>
<wgt id='1406'> -9.5747482e+01 </wgt>
<wgt id='1407'> -9.5951583e+01 </wgt>
<wgt id='1408'> -9.5808722e+01 </wgt>
<wgt id='1409'> -9.5854834e+01 </wgt>
<wgt id='1410'> -9.5804427e+01 </wgt>
<wgt id='1411'> -9.5795906e+01 </wgt>
<wgt id='1412'> -9.6709959e+01 </wgt>
<wgt id='1413'> -9.4649863e+01 </wgt>
<wgt id='1414'> -9.6310710e+01 </wgt>
<wgt id='1415'> -9.5510131e+01 </wgt>
<wgt id='1416'> -9.5917756e+01 </wgt>
<wgt id='1417'> -9.5759952e+01 </wgt>
<wgt id='1418'> -9.6145487e+01 </wgt>
<wgt id='1419'> -9.5123213e+01 </wgt>
<wgt id='1420'> -9.5149167e+01 </wgt>
<wgt id='1421'> -9.5897643e+01 </wgt>
<wgt id='1422'> -9.6071224e+01 </wgt>
<wgt id='1423'> -9.5530038e+01 </wgt>
<wgt id='1424'> -9.5989014e+01 </wgt>
<wgt id='1425'> -9.5269988e+01 </wgt>
<wgt id='1426'> -9.5987627e+01 </wgt>
<wgt id='1427'> -9.5660261e+01 </wgt>
<wgt id='1428'> -9.6253323e+01 </wgt>
<wgt id='1429'> -9.5695098e+01 </wgt>
<wgt id='1430'> -9.5835522e+01 </wgt>
<wgt id='1431'> -9.5812254e+01 </wgt>
<wgt id='1432'> -9.5781817e+01 </wgt>
<wgt id='1433'> -9.5859280e+01 </wgt>
<wgt id='1434'> -9.5740795e+01 </wgt>
<wgt id='1435'> -9.5906842e+01 </wgt>
<wgt id='1436'> +0.0000000e+00 </wgt>
<wgt id='1437'> +0.0000000e+00 </wgt>
<wgt id='1438'> +0.0000000e+00 </wgt>
<wgt id='1439'> +0.0000000e+00 </wgt>
<wgt id='1440'> +0.0000000e+00 </wgt>
<wgt id='1441'> +0.0000000e+00 </wgt>
<wgt id='1442'> +0.0000000e+00 </wgt>
<wgt id='1443'> +0.0000000e+00 </wgt>
<wgt id='1444'> +0.0000000e+00 </wgt>
<wgt id='1445'> +0.0000000e+00 </wgt>
<wgt id='1446'> +0.0000000e+00 </wgt>
<wgt id='1447'> +0.0000000e+00 </wgt>
<wgt id='1448'> +0.0000000e+00 </wgt>
<wgt id='1449'> +0.0000000e+00 </wgt>
<wgt id='1450'> +0.0000000e+00 </wgt>
<wgt id='1451'> +0.0000000e+00 </wgt>
<wgt id='1452'> +0.0000000e+00 </wgt>
<wgt id='1453'> +0.0000000e+00 </wgt>
<wgt id='1454'> +0.0000000e+00 </wgt>
<wgt id='1455'> +0.0000000e+00 </wgt>
<wgt id='1456'> +0.0000000e+00 </wgt>
<wgt id='1457'> +0.0000000e+00 </wgt>
<wgt id='1458'> +0.0000000e+00 </wgt>
<wgt id='1459'> +0.0000000e+00 </wgt>
<wgt id='1460'> +0.0000000e+00 </wgt>
<wgt id='1461'> +0.0000000e+00 </wgt>
<wgt id='1462'> +0.0000000e+00 </wgt>
<wgt id='1463'> +0.0000000e+00 </wgt>
<wgt id='1464'> +0.0000000e+00 </wgt>
<wgt id='1465'> -7.9005262e+01 </wgt>
<wgt id='1466'> -7.1234003e+01 </wgt>
<wgt id='1467'> -7.0875594e+01 </wgt>
<wgt id='1468'> -7.2120658e+01 </wgt>
<wgt id='1469'> -7.1220783e+01 </wgt>
<wgt id='1470'> -7.0876785e+01 </wgt>
<wgt id='1471'> -7.1390250e+01 </wgt>
<wgt id='1472'> -7.1697473e+01 </wgt>
<wgt id='1473'> -7.1009233e+01 </wgt>
<wgt id='1474'> -7.0562161e+01 </wgt>
<wgt id='1475'> -7.1689739e+01 </wgt>
<wgt id='1476'> -7.3869276e+01 </wgt>
<wgt id='1477'> -7.1345233e+01 </wgt>
<wgt id='1478'> -7.0307439e+01 </wgt>
<wgt id='1479'> -7.1324645e+01 </wgt>
<wgt id='1480'> -6.9721106e+01 </wgt>
<wgt id='1481'> -7.1718734e+01 </wgt>
<wgt id='1482'> -7.0776002e+01 </wgt>
<wgt id='1483'> -7.0800027e+01 </wgt>
<wgt id='1484'> -7.1328667e+01 </wgt>
<wgt id='1485'> -7.0822525e+01 </wgt>
<wgt id='1486'> -7.0899200e+01 </wgt>
<wgt id='1487'> -7.1665087e+01 </wgt>
<wgt id='1488'> -7.1630170e+01 </wgt>
<wgt id='1489'> -7.1134686e+01 </wgt>
<wgt id='1490'> -7.1397001e+01 </wgt>
<wgt id='1491'> -7.1863942e+01 </wgt>
<wgt id='1492'> -7.1480919e+01 </wgt>
<wgt id='1493'> -7.1082513e+01 </wgt>
<wgt id='1494'> -7.1469893e+01 </wgt>
<wgt id='1495'> -7.1282860e+01 </wgt>
<wgt id='1496'> -7.1478149e+01 </wgt>
<wgt id='1497'> -7.1251276e+01 </wgt>
<wgt id='1498'> -7.1158585e+01 </wgt>
<wgt id='1499'> -7.1355220e+01 </wgt>
<wgt id='1500'> -7.1557079e+01 </wgt>
<wgt id='1501'> -7.1130425e+01 </wgt>
<wgt id='1502'> -7.1256432e+01 </wgt>
<wgt id='1503'> -7.1263357e+01 </wgt>
<wgt id='1504'> -7.1310996e+01 </wgt>
<wgt id='1505'> -7.1429736e+01 </wgt>
<wgt id='1506'> -7.1462652e+01 </wgt>
<wgt id='1507'> -7.1341686e+01 </wgt>
<wgt id='1508'> -7.1277303e+01 </wgt>
<wgt id='1509'> -7.1180380e+01 </wgt>
<wgt id='1510'> -7.1474293e+01 </wgt>
<wgt id='1511'> -7.1220343e+01 </wgt>
<wgt id='1512'> -7.1165210e+01 </wgt>
<wgt id='1513'> -7.1180584e+01 </wgt>
<wgt id='1514'> -7.1382118e+01 </wgt>
<wgt id='1515'> -7.1307046e+01 </wgt>
<wgt id='1516'> -7.1009702e+01 </wgt>
<wgt id='1517'> -7.1291757e+01 </wgt>
<wgt id='1518'> -7.1043620e+01 </wgt>
<wgt id='1519'> -7.1040004e+01 </wgt>
<wgt id='1520'> -7.1117254e+01 </wgt>
<wgt id='1521'> -7.1271162e+01 </wgt>
<wgt id='1522'> -7.1165686e+01 </wgt>
<wgt id='1523'> -7.1355029e+01 </wgt>
<wgt id='1524'> -7.1261571e+01 </wgt>
<wgt id='1525'> -7.1349938e+01 </wgt>
<wgt id='1526'> -7.1224604e+01 </wgt>
<wgt id='1527'> -7.1427158e+01 </wgt>
<wgt id='1528'> -7.1355001e+01 </wgt>
<wgt id='1529'> -7.1190418e+01 </wgt>
<wgt id='1530'> -7.1241729e+01 </wgt>
<wgt id='1531'> -7.1322408e+01 </wgt>
<wgt id='1532'> -7.1401004e+01 </wgt>
<wgt id='1533'> -7.1267877e+01 </wgt>
<wgt id='1534'> -7.1304747e+01 </wgt>
<wgt id='1535'> -7.1263568e+01 </wgt>
<wgt id='1536'> -7.1117129e+01 </wgt>
<wgt id='1537'> -7.1162216e+01 </wgt>
<wgt id='1538'> -7.1234054e+01 </wgt>
<wgt id='1539'> -7.1286083e+01 </wgt>
<wgt id='1540'> -7.0999524e+01 </wgt>
<wgt id='1541'> -7.1201538e+01 </wgt>
<wgt id='1542'> -7.1296594e+01 </wgt>
<wgt id='1543'> -7.1123882e+01 </wgt>
<wgt id='1544'> -7.1153007e+01 </wgt>
<wgt id='1545'> -7.1242690e+01 </wgt>
<wgt id='1546'> -7.1230916e+01 </wgt>
<wgt id='1547'> -7.1310201e+01 </wgt>
<wgt id='1548'> -7.1322449e+01 </wgt>
<wgt id='1549'> -7.1143190e+01 </wgt>
<wgt id='1550'> -7.1317300e+01 </wgt>
<wgt id='1551'> -7.1221916e+01 </wgt>
<wgt id='1552'> -7.1323438e+01 </wgt>
<wgt id='1553'> -7.1320021e+01 </wgt>
<wgt id='1554'> -7.1324010e+01 </wgt>
<wgt id='1555'> -7.1208621e+01 </wgt>
<wgt id='1556'> -7.1291226e+01 </wgt>
<wgt id='1557'> -7.1151146e+01 </wgt>
<wgt id='1558'> -7.1214655e+01 </wgt>
<wgt id='1559'> -7.1312141e+01 </wgt>
<wgt id='1560'> -7.1144713e+01 </wgt>
<wgt id='1561'> -7.1165190e+01 </wgt>
<wgt id='1562'> -7.1311206e+01 </wgt>
<wgt id='1563'> -7.1240060e+01 </wgt>
<wgt id='1564'> -7.1207439e+01 </wgt>
<wgt id='1565'> -7.1202218e+01 </wgt>
<wgt id='1566'> -7.1239858e+01 </wgt>
<wgt id='1567'> -6.7519383e+01 </wgt>
<wgt id='1568'> -7.4906387e+01 </wgt>
<wgt id='1569'> -7.3123460e+01 </wgt>
<wgt id='1570'> -7.2285733e+01 </wgt>
<wgt id='1571'> -7.4182064e+01 </wgt>
<wgt id='1572'> -7.1428800e+01 </wgt>
<wgt id='1573'> -7.2443747e+01 </wgt>
<wgt id='1574'> -7.3030837e+01 </wgt>
<wgt id='1575'> -7.3044214e+01 </wgt>
<wgt id='1576'> -7.4282533e+01 </wgt>
<wgt id='1577'> -7.3471336e+01 </wgt>
<wgt id='1578'> -7.2664003e+01 </wgt>
<wgt id='1579'> -7.2066619e+01 </wgt>
<wgt id='1580'> -7.5077589e+01 </wgt>
<wgt id='1581'> -7.2458162e+01 </wgt>
<wgt id='1582'> -7.1316989e+01 </wgt>
<wgt id='1583'> -7.2941941e+01 </wgt>
<wgt id='1584'> -7.3266690e+01 </wgt>
<wgt id='1585'> -7.4551897e+01 </wgt>
<wgt id='1586'> -7.2568723e+01 </wgt>
<wgt id='1587'> -7.2915330e+01 </wgt>
<wgt id='1588'> -7.3471108e+01 </wgt>
<wgt id='1589'> -7.3595031e+01 </wgt>
<wgt id='1590'> -7.3182658e+01 </wgt>
<wgt id='1591'> -7.2878232e+01 </wgt>
<wgt id='1592'> -7.3225267e+01 </wgt>
<wgt id='1593'> -7.2865572e+01 </wgt>
<wgt id='1594'> -7.3062450e+01 </wgt>
<wgt id='1595'> -7.2869191e+01 </wgt>
<wgt id='1596'> -7.3356397e+01 </wgt>
<wgt id='1597'> -7.3251011e+01 </wgt>
<wgt id='1598'> -7.2888153e+01 </wgt>
<wgt id='1599'> -7.2828727e+01 </wgt>
<wgt id='1600'> -7.3307421e+01 </wgt>
<wgt id='1601'> -7.2875858e+01 </wgt>
<wgt id='1602'> -7.2845954e+01 </wgt>
<wgt id='1603'> -7.3242200e+01 </wgt>
<wgt id='1604'> -7.3034268e+01 </wgt>
<wgt id='1605'> -7.3225847e+01 </wgt>
<wgt id='1606'> -7.2973902e+01 </wgt>
<wgt id='1607'> -7.3054893e+01 </wgt>
<wgt id='1608'> -7.2940445e+01 </wgt>
<wgt id='1609'> -7.3067012e+01 </wgt>
<wgt id='1610'> -7.3343472e+01 </wgt>
<wgt id='1611'> -7.3354847e+01 </wgt>
<wgt id='1612'> -7.3031731e+01 </wgt>
<wgt id='1613'> -7.3032733e+01 </wgt>
<wgt id='1614'> -7.3324054e+01 </wgt>
<wgt id='1615'> -7.3121868e+01 </wgt>
<wgt id='1616'> -7.3321897e+01 </wgt>
<wgt id='1617'> -7.3247837e+01 </wgt>
<wgt id='1618'> -7.3240973e+01 </wgt>
<wgt id='1619'> -7.3105708e+01 </wgt>
<wgt id='1620'> -7.3033418e+01 </wgt>
<wgt id='1621'> -7.3202486e+01 </wgt>
<wgt id='1622'> -7.2914235e+01 </wgt>
<wgt id='1623'> -7.3084654e+01 </wgt>
<wgt id='1624'> -7.3146785e+01 </wgt>
<wgt id='1625'> -7.3055551e+01 </wgt>
<wgt id='1626'> -7.3263404e+01 </wgt>
<wgt id='1627'> -7.2983060e+01 </wgt>
<wgt id='1628'> -7.3101603e+01 </wgt>
<wgt id='1629'> -7.3119186e+01 </wgt>
<wgt id='1630'> -7.3128860e+01 </wgt>
<wgt id='1631'> -7.3136325e+01 </wgt>
<wgt id='1632'> -7.2961099e+01 </wgt>
<wgt id='1633'> -7.3312788e+01 </wgt>
<wgt id='1634'> -7.3021118e+01 </wgt>
<wgt id='1635'> -7.3022748e+01 </wgt>
<wgt id='1636'> -7.3091426e+01 </wgt>
<wgt id='1637'> -7.3119225e+01 </wgt>
<wgt id='1638'> -7.3097923e+01 </wgt>
<wgt id='1639'> -7.3106576e+01 </wgt>
<wgt id='1640'> -7.3085663e+01 </wgt>
<wgt id='1641'> -7.3042053e+01 </wgt>
<wgt id='1642'> -7.3173650e+01 </wgt>
<wgt id='1643'> -7.3126572e+01 </wgt>
<wgt id='1644'> -7.3183610e+01 </wgt>
<wgt id='1645'> -7.3104283e+01 </wgt>
<wgt id='1646'> -7.3108380e+01 </wgt>
<wgt id='1647'> -7.3002908e+01 </wgt>
<wgt id='1648'> -7.3117292e+01 </wgt>
<wgt id='1649'> -7.3220308e+01 </wgt>
<wgt id='1650'> -7.3172362e+01 </wgt>
<wgt id='1651'> -7.3139865e+01 </wgt>
<wgt id='1652'> -7.3168139e+01 </wgt>
<wgt id='1653'> -7.3095927e+01 </wgt>
<wgt id='1654'> -7.3042359e+01 </wgt>
<wgt id='1655'> -7.3188548e+01 </wgt>
<wgt id='1656'> -7.3015302e+01 </wgt>
<wgt id='1657'> -7.3062430e+01 </wgt>
<wgt id='1658'> -7.3067868e+01 </wgt>
<wgt id='1659'> -7.3069864e+01 </wgt>
<wgt id='1660'> -7.3031689e+01 </wgt>
<wgt id='1661'> -7.3049247e+01 </wgt>
<wgt id='1662'> -7.3121099e+01 </wgt>
<wgt id='1663'> -7.3028719e+01 </wgt>
<wgt id='1664'> -7.3081260e+01 </wgt>
<wgt id='1665'> -7.3188711e+01 </wgt>
<wgt id='1666'> -7.3137582e+01 </wgt>
<wgt id='1667'> -7.3054035e+01 </wgt>
<wgt id='1668'> -7.3169702e+01 </wgt>
<wgt id='1669'> -7.3155334e+01 </wgt>
<wgt id='1670'> -6.9536705e+01 </wgt>
<wgt id='1671'> -7.6371895e+01 </wgt>
<wgt id='1672'> -7.1338303e+01 </wgt>
<wgt id='1673'> -7.2026092e+01 </wgt>
<wgt id='1674'> -7.0079780e+01 </wgt>
<wgt id='1675'> -7.1314667e+01 </wgt>
<wgt id='1676'> -6.9176680e+01 </wgt>
<wgt id='1677'> -7.3183929e+01 </wgt>
<wgt id='1678'> -7.0915305e+01 </wgt>
<wgt id='1679'> -7.1343468e+01 </wgt>
<wgt id='1680'> -7.1873899e+01 </wgt>
<wgt id='1681'> -7.1006413e+01 </wgt>
<wgt id='1682'> -7.1914505e+01 </wgt>
<wgt id='1683'> -7.1367707e+01 </wgt>
<wgt id='1684'> -7.1782284e+01 </wgt>
<wgt id='1685'> -7.1519939e+01 </wgt>
<wgt id='1686'> -7.0925453e+01 </wgt>
<wgt id='1687'> -7.1179983e+01 </wgt>
<wgt id='1688'> -7.0638884e+01 </wgt>
<wgt id='1689'> -7.1214373e+01 </wgt>
<wgt id='1690'> -7.1674038e+01 </wgt>
<wgt id='1691'> -7.1723643e+01 </wgt>
<wgt id='1692'> -7.1646145e+01 </wgt>
<wgt id='1693'> -7.1252584e+01 </wgt>
<wgt id='1694'> -7.1294032e+01 </wgt>
<wgt id='1695'> -7.1349658e+01 </wgt>
<wgt id='1696'> -7.0933972e+01 </wgt>
<wgt id='1697'> -7.1516132e+01 </wgt>
<wgt id='1698'> -7.1678053e+01 </wgt>
<wgt id='1699'> -7.1670316e+01 </wgt>
<wgt id='1700'> -7.1791985e+01 </wgt>
<wgt id='1701'> -7.1709602e+01 </wgt>
<wgt id='1702'> -7.1309653e+01 </wgt>
<wgt id='1703'> -6.7519383e+01 </wgt>
<wgt id='1704'> -7.4906387e+01 </wgt>
<wgt id='1705'> -7.3139309e+01 </wgt>
<wgt id='1706'> -7.2095919e+01 </wgt>
<wgt id='1707'> -7.3896267e+01 </wgt>
<wgt id='1708'> -7.2735470e+01 </wgt>
<wgt id='1709'> -7.5202268e+01 </wgt>
<wgt id='1710'> -7.1443619e+01 </wgt>
<wgt id='1711'> -7.2952391e+01 </wgt>
<wgt id='1712'> -7.2689514e+01 </wgt>
<wgt id='1713'> -7.2162334e+01 </wgt>
<wgt id='1714'> -7.2344854e+01 </wgt>
<wgt id='1715'> -7.4108366e+01 </wgt>
<wgt id='1716'> -7.3601125e+01 </wgt>
<wgt id='1717'> -7.3612425e+01 </wgt>
<wgt id='1718'> -7.3522500e+01 </wgt>
<wgt id='1719'> -7.3117199e+01 </wgt>
<wgt id='1720'> -7.2949551e+01 </wgt>
<wgt id='1721'> -7.2653278e+01 </wgt>
<wgt id='1722'> -7.3726214e+01 </wgt>
<wgt id='1723'> -7.2942818e+01 </wgt>
<wgt id='1724'> -7.2521824e+01 </wgt>
<wgt id='1725'> -7.4020342e+01 </wgt>
<wgt id='1726'> -7.3599984e+01 </wgt>
<wgt id='1727'> -7.4952002e+01 </wgt>
<wgt id='1728'> -7.3184293e+01 </wgt>
<wgt id='1729'> -7.4098899e+01 </wgt>
<wgt id='1730'> -7.2916729e+01 </wgt>
<wgt id='1731'> -7.3454779e+01 </wgt>
<wgt id='1732'> -7.3340350e+01 </wgt>
<wgt id='1733'> -7.3931009e+01 </wgt>
<wgt id='1734'> -7.3240006e+01 </wgt>
<wgt id='1735'> -7.3143553e+01 </wgt>
<wgt id='1736'> -6.9536705e+01 </wgt>
<wgt id='1737'> -7.6371895e+01 </wgt>
<wgt id='1738'> -7.6036454e+01 </wgt>
<wgt id='1739'> -7.5908024e+01 </wgt>
<wgt id='1740'> -7.6164359e+01 </wgt>
<wgt id='1741'> -7.6266037e+01 </wgt>
<wgt id='1742'> -7.5807331e+01 </wgt>
<wgt id='1743'> -7.6171979e+01 </wgt>
<wgt id='1744'> -7.5901139e+01 </wgt>
<wgt id='1745'> -7.6298796e+01 </wgt>
<wgt id='1746'> -7.5781401e+01 </wgt>
<wgt id='1747'> -7.6148763e+01 </wgt>
<wgt id='1748'> -7.5927411e+01 </wgt>
<wgt id='1749'> -7.5831647e+01 </wgt>
<wgt id='1750'> -7.6251765e+01 </wgt>
<wgt id='1751'> -7.5700253e+01 </wgt>
<wgt id='1752'> -7.6376352e+01 </wgt>
<wgt id='1753'> -7.6049912e+01 </wgt>
<wgt id='1754'> -7.5933211e+01 </wgt>
<wgt id='1755'> -7.6314846e+01 </wgt>
<wgt id='1756'> -7.5728466e+01 </wgt>
<wgt id='1757'> -7.5773056e+01 </wgt>
<wgt id='1758'> -7.6291848e+01 </wgt>
<wgt id='1759'> -7.6397473e+01 </wgt>
<wgt id='1760'> -7.5578943e+01 </wgt>
<wgt id='1761'> -7.5643550e+01 </wgt>
<wgt id='1762'> -7.6003257e+01 </wgt>
<wgt id='1763'> -7.6234383e+01 </wgt>
<wgt id='1764'> -7.5958330e+01 </wgt>
<wgt id='1765'> -7.6035610e+01 </wgt>
<wgt id='1766'> -7.6123469e+01 </wgt>
<wgt id='1767'> -7.6036454e+01 </wgt>
<wgt id='1768'> -7.6029175e+01 </wgt>
<wgt id='1769'> -7.5994821e+01 </wgt>
<wgt id='1770'> -7.6016003e+01 </wgt>
<wgt id='1771'> -7.6008999e+01 </wgt>
<wgt id='1772'> -7.6316339e+01 </wgt>
<wgt id='1773'> -7.5438644e+01 </wgt>
<wgt id='1774'> -7.9112478e+01 </wgt>
<wgt id='1775'> -7.3183038e+01 </wgt>
<wgt id='1776'> -7.5864864e+01 </wgt>
<wgt id='1777'> -7.6232351e+01 </wgt>
<wgt id='1778'> -7.6020007e+01 </wgt>
<wgt id='1779'> -7.6172412e+01 </wgt>
<wgt id='1780'> -7.5242969e+01 </wgt>
<wgt id='1781'> -7.4268776e+01 </wgt>
<wgt id='1782'> -7.4193557e+01 </wgt>
<wgt id='1783'> -7.4330666e+01 </wgt>
<wgt id='1784'> -7.4400501e+01 </wgt>
<wgt id='1785'> -7.4124110e+01 </wgt>
<wgt id='1786'> -7.4469975e+01 </wgt>
<wgt id='1787'> -7.4054964e+01 </wgt>
<wgt id='1788'> -7.4655551e+01 </wgt>
<wgt id='1789'> -7.3878334e+01 </wgt>
<wgt id='1790'> -7.4249136e+01 </wgt>
<wgt id='1791'> -7.4279363e+01 </wgt>
<wgt id='1792'> -7.4478528e+01 </wgt>
<wgt id='1793'> -7.4046997e+01 </wgt>
<wgt id='1794'> -7.4023840e+01 </wgt>
<wgt id='1795'> -7.4500860e+01 </wgt>
<wgt id='1796'> -7.4147261e+01 </wgt>
<wgt id='1797'> -7.4336633e+01 </wgt>
<wgt id='1798'> -7.4220182e+01 </wgt>
<wgt id='1799'> -7.4286881e+01 </wgt>
<wgt id='1800'> -7.4133831e+01 </wgt>
<wgt id='1801'> -7.4385127e+01 </wgt>
<wgt id='1802'> -7.3575213e+01 </wgt>
<wgt id='1803'> -7.4828991e+01 </wgt>
<wgt id='1804'> -7.4239557e+01 </wgt>
<wgt id='1805'> -7.4267072e+01 </wgt>
<wgt id='1806'> -7.3943887e+01 </wgt>
<wgt id='1807'> -7.4358494e+01 </wgt>
<wgt id='1808'> -7.4235343e+01 </wgt>
<wgt id='1809'> -7.4389602e+01 </wgt>
<wgt id='1810'> -7.4087710e+01 </wgt>
<wgt id='1811'> -7.4152037e+01 </wgt>
<wgt id='1812'> -7.3836678e+01 </wgt>
<wgt id='1813'> -7.4127020e+01 </wgt>
<wgt id='1814'> -7.4014642e+01 </wgt>
<wgt id='1815'> -7.3808119e+01 </wgt>
<wgt id='1816'> -7.4108107e+01 </wgt>
<wgt id='1817'> -7.7021904e+01 </wgt>
<wgt id='1818'> -7.1536074e+01 </wgt>
<wgt id='1819'> -7.3805810e+01 </wgt>
<wgt id='1820'> -7.4108116e+01 </wgt>
<wgt id='1821'> -7.3804612e+01 </wgt>
<wgt id='1822'> -7.4817972e+01 </wgt>
<wgt id='1823'> -7.3625709e+01 </wgt>
<wgt id='1824'> -6.7540914e+01 </wgt>
<wgt id='1825'> -6.7532173e+01 </wgt>
<wgt id='1826'> -6.7523080e+01 </wgt>
<wgt id='1827'> -6.7514086e+01 </wgt>
<wgt id='1828'> -6.7504993e+01 </wgt>
<wgt id='1829'> -6.7496224e+01 </wgt>
<wgt id='1830'> -6.7487178e+01 </wgt>
<wgt id='1831'> -6.7478028e+01 </wgt>
<wgt id='1832'> -6.7468892e+01 </wgt>
<wgt id='1833'> -6.7459898e+01 </wgt>
<wgt id='1834'> -6.7451187e+01 </wgt>
<wgt id='1835'> -6.7442066e+01 </wgt>
<wgt id='1836'> -6.7433076e+01 </wgt>
<wgt id='1837'> -6.7423935e+01 </wgt>
<wgt id='1838'> -6.7415138e+01 </wgt>
<wgt id='1839'> -6.7406091e+01 </wgt>
<wgt id='1840'> -6.7396985e+01 </wgt>
<wgt id='1841'> -6.7387937e+01 </wgt>
<wgt id='1842'> -6.7379272e+01 </wgt>
<wgt id='1843'> -6.7370188e+01 </wgt>
<wgt id='1844'> -6.7361093e+01 </wgt>
<wgt id='1845'> -6.7351937e+01 </wgt>
<wgt id='1846'> -6.7342881e+01 </wgt>
<wgt id='1847'> -6.7334168e+01 </wgt>
<wgt id='1848'> -6.7325165e+01 </wgt>
<wgt id='1849'> -6.7316086e+01 </wgt>
<wgt id='1850'> -6.7306963e+01 </wgt>
<wgt id='1851'> -6.7298228e+01 </wgt>
<wgt id='1852'> -6.7289090e+01 </wgt>
<wgt id='1853'> -6.7280111e+01 </wgt>
<wgt id='1854'> -6.7271057e+01 </wgt>
<wgt id='1855'> -7.2393208e+01 </wgt>
<wgt id='1856'> -7.1518601e+01 </wgt>
<wgt id='1857'> -7.3437021e+01 </wgt>
<wgt id='1858'> -7.0708638e+01 </wgt>
<wgt id='1859'> -7.1707121e+01 </wgt>
<wgt id='1860'> -7.2295794e+01 </wgt>
<wgt id='1861'> -7.2343956e+01 </wgt>
<wgt id='1862'> -7.3578387e+01 </wgt>
<wgt id='1863'> -7.2741639e+01 </wgt>
<wgt id='1864'> -7.1938045e+01 </wgt>
<wgt id='1865'> -7.1332501e+01 </wgt>
<wgt id='1866'> -7.4376199e+01 </wgt>
<wgt id='1867'> -7.1753166e+01 </wgt>
<wgt id='1868'> -7.0613391e+01 </wgt>
<wgt id='1869'> -7.2213183e+01 </wgt>
<wgt id='1870'> -7.2483324e+01 </wgt>
<wgt id='1871'> -7.3854519e+01 </wgt>
<wgt id='1872'> -7.1823584e+01 </wgt>
<wgt id='1873'> -7.2177047e+01 </wgt>
<wgt id='1874'> -7.2765669e+01 </wgt>
<wgt id='1875'> -7.2890398e+01 </wgt>
<wgt id='1876'> -7.2436802e+01 </wgt>
<wgt id='1877'> -7.2141832e+01 </wgt>
<wgt id='1878'> -7.2506864e+01 </wgt>
<wgt id='1879'> -7.2119675e+01 </wgt>
<wgt id='1880'> -7.2304185e+01 </wgt>
<wgt id='1881'> -7.2111832e+01 </wgt>
<wgt id='1882'> -7.2657902e+01 </wgt>
<wgt id='1883'> -7.2532766e+01 </wgt>
<wgt id='1884'> -7.2142601e+01 </wgt>
<wgt id='1885'> -7.2085449e+01 </wgt>
<wgt id='1886'> -7.2609371e+01 </wgt>
<wgt id='1887'> -7.2133209e+01 </wgt>
<wgt id='1888'> -7.2104578e+01 </wgt>
<wgt id='1889'> -7.2511186e+01 </wgt>
<wgt id='1890'> -7.2295578e+01 </wgt>
<wgt id='1891'> -7.2497519e+01 </wgt>
<wgt id='1892'> -7.2243912e+01 </wgt>
<wgt id='1893'> -7.2320264e+01 </wgt>
<wgt id='1894'> -7.2198044e+01 </wgt>
<wgt id='1895'> -7.2337535e+01 </wgt>
<wgt id='1896'> -7.2606827e+01 </wgt>
<wgt id='1897'> -7.2620166e+01 </wgt>
<wgt id='1898'> -7.2318003e+01 </wgt>
<wgt id='1899'> -7.2299111e+01 </wgt>
<wgt id='1900'> -7.2590653e+01 </wgt>
<wgt id='1901'> -7.2400880e+01 </wgt>
<wgt id='1902'> -7.2586122e+01 </wgt>
<wgt id='1903'> -7.2522926e+01 </wgt>
<wgt id='1904'> -7.2508392e+01 </wgt>
<wgt id='1905'> -7.2378595e+01 </wgt>
<wgt id='1906'> -7.2300170e+01 </wgt>
<wgt id='1907'> -7.2470655e+01 </wgt>
<wgt id='1908'> -7.2184008e+01 </wgt>
<wgt id='1909'> -7.2359015e+01 </wgt>
<wgt id='1910'> -7.2420430e+01 </wgt>
<wgt id='1911'> -7.2314787e+01 </wgt>
<wgt id='1912'> -7.2534004e+01 </wgt>
<wgt id='1913'> -7.2262485e+01 </wgt>
<wgt id='1914'> -7.2376526e+01 </wgt>
<wgt id='1915'> -7.2394163e+01 </wgt>
<wgt id='1916'> -7.2400961e+01 </wgt>
<wgt id='1917'> -7.2403635e+01 </wgt>
<wgt id='1918'> -7.2226100e+01 </wgt>
<wgt id='1919'> -7.2586137e+01 </wgt>
<wgt id='1920'> -7.2289428e+01 </wgt>
<wgt id='1921'> -7.2291325e+01 </wgt>
<wgt id='1922'> -7.2356242e+01 </wgt>
<wgt id='1923'> -7.2389291e+01 </wgt>
<wgt id='1924'> -7.2362276e+01 </wgt>
<wgt id='1925'> -7.2374921e+01 </wgt>
<wgt id='1926'> -7.2357713e+01 </wgt>
<wgt id='1927'> -7.2308916e+01 </wgt>
<wgt id='1928'> -7.2440718e+01 </wgt>
<wgt id='1929'> -7.2396217e+01 </wgt>
<wgt id='1930'> -7.2454170e+01 </wgt>
<wgt id='1931'> -7.2380561e+01 </wgt>
<wgt id='1932'> -7.2378991e+01 </wgt>
<wgt id='1933'> -7.2276970e+01 </wgt>
<wgt id='1934'> -7.2386998e+01 </wgt>
<wgt id='1935'> -7.2483954e+01 </wgt>
<wgt id='1936'> -7.2448017e+01 </wgt>
<wgt id='1937'> -7.2411390e+01 </wgt>
<wgt id='1938'> -7.2437997e+01 </wgt>
<wgt id='1939'> -7.2363251e+01 </wgt>
<wgt id='1940'> -7.2313967e+01 </wgt>
<wgt id='1941'> -7.2464714e+01 </wgt>
<wgt id='1942'> -7.2282853e+01 </wgt>
<wgt id='1943'> -7.2329122e+01 </wgt>
<wgt id='1944'> -7.2334411e+01 </wgt>
<wgt id='1945'> -7.2338038e+01 </wgt>
<wgt id='1946'> -7.2297387e+01 </wgt>
<wgt id='1947'> -7.2315436e+01 </wgt>
<wgt id='1948'> -7.2392208e+01 </wgt>
<wgt id='1949'> -7.2293504e+01 </wgt>
<wgt id='1950'> -7.2351101e+01 </wgt>
<wgt id='1951'> -7.2460951e+01 </wgt>
<wgt id='1952'> -7.2407981e+01 </wgt>
<wgt id='1953'> -7.2322575e+01 </wgt>
<wgt id='1954'> -7.2441461e+01 </wgt>
<wgt id='1955'> -7.2426421e+01 </wgt>
<wgt id='1956'> -7.2392555e+01 </wgt>
<wgt id='1957'> -7.2396718e+01 </wgt>
<wgt id='1958'> -7.2393876e+01 </wgt>
<wgt id='1959'> -7.2393998e+01 </wgt>
<wgt id='1960'> -7.2395176e+01 </wgt>
<wgt id='1961'> -7.2393493e+01 </wgt>
<wgt id='1962'> -7.2397419e+01 </wgt>
</rwgt>
</event>
<event npLO=" -1 " npNLO=" 1 ">
 7      1 +1.5146096e+02 3.55697880e+01 7.54677110e-03 1.08961390e-01
       21 -1    0    0  501  502 +0.0000000000e+00 +0.0000000000e+00 +3.4480942000e+01 3.4480942000e+01 0.0000000000e+00 0.0000e+00 9.0000e+00
       -3 -1    0    0    0  501 +0.0000000000e+00 +0.0000000000e+00 -1.2910233000e+02 1.2910233000e+02 0.0000000000e+00 0.0000e+00 9.0000e+00
       23  2    1    2    0    0 -3.5255521000e+01 +4.7178392000e+00 -7.4085803000e+01 1.2251114000e+02 9.0857379000e+01 0.0000e+00 0.0000e+00
       11  1    3    3    0    0 +7.5793360000e+00 -3.6786141000e+01 -2.9133716000e+01 4.7533566000e+01 0.0000000000e+00 0.0000e+00 9.0000e+00
      -11  1    3    3    0    0 -3.0297464000e+01 +2.7315885000e+01 -3.3998750000e+01 5.3103756000e+01 0.0000000000e+00 0.0000e+00 9.0000e+00
       22  1    3    3    0    0 -1.2537394000e+01 +1.4188096000e+01 -1.0953337000e+01 2.1873817000e+01 0.0000000000e+00 0.0000e+00 9.0000e+00
       -3  1    1    2    0  502 +3.5255521000e+01 -4.7178392000e+00 -2.0535584000e+01 4.1072132000e+01 0.0000000000e+00 0.0000e+00 9.0000e+00
#aMCatNLO 1  0  0  1  6 0.29814329E+03 0.00000000E+00 -9  7  0 0.00000000E+00 0.00000000E+00 0.00000000E+00 0.00000000E+00 0.00000000E+00
<rwgt>
<wgt id='1001'> +1.5146000e+02 </wgt>
<wgt id='1002'> +1.5146000e+02 </wgt>
<wgt id='1003'> +1.2972000e+02 </wgt>
<wgt id='1004'> +1.5131000e+02 </wgt>
<wgt id='1005'> +1.4607000e+02 </wgt>
<wgt id='1006'> +1.4403000e+02 </wgt>
<wgt id='1007'> +1.2913000e+02 </wgt>
<wgt id='1008'> +1.6290000e+02 </wgt>
<wgt id='1009'> +1.4564000e+02 </wgt>
<wgt id='1010'> +1.5562000e+02 </wgt>
<wgt id='1011'> +1.5666000e+02 </wgt>
<wgt id='1012'> +1.7100000e+02 </wgt>
<wgt id='1013'> +1.4620000e+02 </wgt>
<wgt id='1014'> +1.5037000e+02 </wgt>
<wgt id='1015'> +1.5348000e+02 </wgt>
<wgt id='1016'> +1.4583000e+02 </wgt>
<wgt id='1017'> +1.6737000e+02 </wgt>
<wgt id='1018'> +1.5301000e+02 </wgt>
<wgt id='1019'> +1.5620000e+02 </wgt>
<wgt id='1020'> +1.6329000e+02 </wgt>
<wgt id='1021'> +1.4457000e+02 </wgt>
<wgt id='1022'> +1.3973000e+02 </wgt>
<wgt id='1023'> +1.4265000e+02 </wgt>
<wgt id='1024'> +1.4936000e+02 </wgt>
<wgt id='1025'> +1.6076000e+02 </wgt>
<wgt id='1026'> +1.3589000e+02 </wgt>
<wgt id='1027'> +1.4452000e+02 </wgt>
<wgt id='1028'> +1.6767000e+02 </wgt>
<wgt id='1029'> +1.4918000e+02 </wgt>
<wgt id='1030'> +1.3848000e+02 </wgt>
<wgt id='1031'> +1.4739000e+02 </wgt>
<wgt id='1032'> +1.4977000e+02 </wgt>
<wgt id='1033'> +1.5085000e+02 </wgt>
<wgt id='1034'> +1.7313000e+02 </wgt>
<wgt id='1035'> +1.5039000e+02 </wgt>
<wgt id='1036'> +1.6259000e+02 </wgt>
<wgt id='1037'> +1.5270000e+02 </wgt>
<wgt id='1038'> +1.4586000e+02 </wgt>
<wgt id='1039'> +1.5331000e+02 </wgt>
<wgt id='1040'> +1.4573000e+02 </wgt>
<wgt id='1041'> +1.4329000e+02 </wgt>
<wgt id='1042'> +1.4746000e+02 </wgt>
<wgt id='1043'> +1.4435000e+02 </wgt>
<wgt id='1044'> +1.5429000e+02 </wgt>
<wgt id='1045'> +1.5211000e+02 </wgt>
<wgt id='1046'> +1.6267000e+02 </wgt>
<wgt id='1047'> +1.6063000e+02 </wgt>
<wgt id='1048'> +1.5442000e+02 </wgt>
<wgt id='1049'> +1.6327000e+02 </wgt>
<wgt id='1050'> +1.5331000e+02 </wgt>
<wgt id='1051'> +1.5048000e+02 </wgt>
<wgt id='1052'> +1.4698000e+02 </wgt>
<wgt id='1053'> +1.3551000e+02 </wgt>
<wgt id='1054'> +1.5497000e+02 </wgt>
<wgt id='1055'> +1.7696000e+02 </wgt>
<wgt id='1056'> +1.5761000e+02 </wgt>
<wgt id='1057'> +1.5145000e+02 </wgt>
<wgt id='1058'> +1.5342000e+02 </wgt>
<wgt id='1059'> +1.5383000e+02 </wgt>
<wgt id='1060'> +1.4404000e+02 </wgt>
<wgt id='1061'> +1.5248000e+02 </wgt>
<wgt id='1062'> +1.5143000e+02 </wgt>
<wgt id='1063'> +1.5844000e+02 </wgt>
<wgt id='1064'> +1.4585000e+02 </wgt>
<wgt id='1065'> +1.5106000e+02 </wgt>
<wgt id='1066'> +1.6041000e+02 </wgt>
<wgt id='1067'> +1.5050000e+02 </wgt>
<wgt id='1068'> +1.5728000e+02 </wgt>
<wgt id='1069'> +1.6710000e+02 </wgt>
<wgt id='1070'> +1.5427000e+02 </wgt>
<wgt id='1071'> +1.4406000e+02 </wgt>
<wgt id='1072'> +1.4946000e+02 </wgt>
<wgt id='1073'> +1.6147000e+02 </wgt>
<wgt id='1074'> +1.6556000e+02 </wgt>
<wgt id='1075'> +1.3905000e+02 </wgt>
<wgt id='1076'> +1.5378000e+02 </wgt>
<wgt id='1077'> +1.4219000e+02 </wgt>
<wgt id='1078'> +1.4983000e+02 </wgt>
<wgt id='1079'> +1.5264000e+02 </wgt>
<wgt id='1080'> +1.5543000e+02 </wgt>
<wgt id='1081'> +1.4824000e+02 </wgt>
<wgt id='1082'> +1.4982000e+02 </wgt>
<wgt id='1083'> +1.5230000e+02 </wgt>
<wgt id='1084'> +1.4206000e+02 </wgt>
<wgt id='1085'> +1.5372000e+02 </wgt>
<wgt id='1086'> +1.4741000e+02 </wgt>
<wgt id='1087'> +1.4055000e+02 </wgt>
<wgt id='1088'> +1.4689000e+02 </wgt>
<wgt id='1089'> +1.4310000e+02 </wgt>
<wgt id='1090'> +1.4314000e+02 </wgt>
<wgt id='1091'> +1.4644000e+02 </wgt>
<wgt id='1092'> +1.4040000e+02 </wgt>
<wgt id='1093'> +1.4451000e+02 </wgt>
<wgt id='1094'> +1.5766000e+02 </wgt>
<wgt id='1095'> +1.5359000e+02 </wgt>
<wgt id='1096'> +1.5165000e+02 </wgt>
<wgt id='1097'> +1.6144000e+02 </wgt>
<wgt id='1098'> +1.5948000e+02 </wgt>
<wgt id='1099'> +1.4699000e+02 </wgt>
<wgt id='1100'> +1.5996000e+02 </wgt>
<wgt id='1101'> +1.4939000e+02 </wgt>
<wgt id='1102'> +1.5355000e+02 </wgt>
<wgt id='1103'> +1.4931000e+02 </wgt>
<wgt id='1104'> +1.5326000e+02 </wgt>
<wgt id='1105'> +1.5146096e+02 </wgt>
<wgt id='1106'> +7.5776579e+01 </wgt>
<wgt id='1107'> +7.2748375e+01 </wgt>
<wgt id='1108'> +8.4540504e+01 </wgt>
<wgt id='1109'> +8.4491856e+01 </wgt>
<wgt id='1110'> +8.1375862e+01 </wgt>
<wgt id='1111'> +6.5473094e+01 </wgt>
<wgt id='1112'> +6.5591382e+01 </wgt>
<wgt id='1113'> +6.2766121e+01 </wgt>
<wgt id='1114'> +8.8374428e+01 </wgt>
<wgt id='1115'> +7.3368465e+01 </wgt>
<wgt id='1116'> +9.0267189e+01 </wgt>
<wgt id='1117'> +9.7292970e+01 </wgt>
<wgt id='1118'> +8.8742574e+01 </wgt>
<wgt id='1119'> +9.1179894e+01 </wgt>
<wgt id='1120'> +7.7903567e+01 </wgt>
<wgt id='1121'> +7.9214126e+01 </wgt>
<wgt id='1122'> +9.8635259e+01 </wgt>
<wgt id='1123'> +9.3195337e+01 </wgt>
<wgt id='1124'> +8.5693724e+01 </wgt>
<wgt id='1125'> +9.1909438e+01 </wgt>
<wgt id='1126'> +9.3277892e+01 </wgt>
<wgt id='1127'> +9.0103544e+01 </wgt>
<wgt id='1128'> +9.0695367e+01 </wgt>
<wgt id='1129'> +8.9518891e+01 </wgt>
<wgt id='1130'> +8.1665775e+01 </wgt>
<wgt id='1131'> +8.3945206e+01 </wgt>
<wgt id='1132'> +8.7415756e+01 </wgt>
<wgt id='1133'> +9.0826387e+01 </wgt>
<wgt id='1134'> +9.8545224e+01 </wgt>
<wgt id='1135'> +8.9116770e+01 </wgt>
<wgt id='1136'> +9.1496064e+01 </wgt>
<wgt id='1137'> +8.3063697e+01 </wgt>
<wgt id='1138'> +9.2854525e+01 </wgt>
<wgt id='1139'> +9.2651960e+01 </wgt>
<wgt id='1140'> +8.7073961e+01 </wgt>
<wgt id='1141'> +8.6495781e+01 </wgt>
<wgt id='1142'> +9.2674520e+01 </wgt>
<wgt id='1143'> +8.1635563e+01 </wgt>
<wgt id='1144'> +8.5475899e+01 </wgt>
<wgt id='1145'> +8.3541978e+01 </wgt>
<wgt id='1146'> +9.1024121e+01 </wgt>
<wgt id='1147'> +8.3940598e+01 </wgt>
<wgt id='1148'> +9.9681567e+01 </wgt>
<wgt id='1149'> +8.5319621e+01 </wgt>
<wgt id='1150'> +9.4421715e+01 </wgt>
<wgt id='1151'> +8.7016664e+01 </wgt>
<wgt id='1152'> +8.9085359e+01 </wgt>
<wgt id='1153'> +9.2468576e+01 </wgt>
<wgt id='1154'> +8.3466065e+01 </wgt>
<wgt id='1155'> +8.7795210e+01 </wgt>
<wgt id='1156'> +8.4499738e+01 </wgt>
<wgt id='1157'> +8.7344890e+01 </wgt>
<wgt id='1158'> +8.1238395e+01 </wgt>
<wgt id='1159'> +9.0401514e+01 </wgt>
<wgt id='1160'> +8.3836854e+01 </wgt>
<wgt id='1161'> +9.0745492e+01 </wgt>
<wgt id='1162'> +9.6071451e+01 </wgt>
<wgt id='1163'> +8.5850424e+01 </wgt>
<wgt id='1164'> +8.5006141e+01 </wgt>
<wgt id='1165'> +9.1544797e+01 </wgt>
<wgt id='1166'> +8.5535700e+01 </wgt>
<wgt id='1167'> +9.4367108e+01 </wgt>
<wgt id='1168'> +8.3400947e+01 </wgt>
<wgt id='1169'> +8.7164727e+01 </wgt>
<wgt id='1170'> +9.1370420e+01 </wgt>
<wgt id='1171'> +8.8505148e+01 </wgt>
<wgt id='1172'> +9.3120680e+01 </wgt>
<wgt id='1173'> +8.9427219e+01 </wgt>
<wgt id='1174'> +8.4330310e+01 </wgt>
<wgt id='1175'> +8.0929532e+01 </wgt>
<wgt id='1176'> +8.8755561e+01 </wgt>
<wgt id='1177'> +8.9329778e+01 </wgt>
<wgt id='1178'> +9.5017952e+01 </wgt>
<wgt id='1179'> +8.0924712e+01 </wgt>
<wgt id='1180'> +8.4658789e+01 </wgt>
<wgt id='1181'> +7.8571669e+01 </wgt>
<wgt id='1182'> +8.4697000e+01 </wgt>
<wgt id='1183'> +8.7167134e+01 </wgt>
<wgt id='1184'> +9.0514854e+01 </wgt>
<wgt id='1185'> +8.7364154e+01 </wgt>
<wgt id='1186'> +8.3879300e+01 </wgt>
<wgt id='1187'> +9.5085966e+01 </wgt>
<wgt id='1188'> +9.3092495e+01 </wgt>
<wgt id='1189'> +9.2261802e+01 </wgt>
<wgt id='1190'> +8.0511974e+01 </wgt>
<wgt id='1191'> +8.4508252e+01 </wgt>
<wgt id='1192'> +8.6941579e+01 </wgt>
<wgt id='1193'> +9.4417877e+01 </wgt>
<wgt id='1194'> +8.5672312e+01 </wgt>
<wgt id='1195'> +9.0369494e+01 </wgt>
<wgt id='1196'> +8.1665775e+01 </wgt>
<wgt id='1197'> +9.0181638e+01 </wgt>
<wgt id='1198'> +9.6739495e+01 </wgt>
<wgt id='1199'> +8.9349653e+01 </wgt>
<wgt id='1200'> +8.8706468e+01 </wgt>
<wgt id='1201'> +9.5867045e+01 </wgt>
<wgt id='1202'> +8.2972928e+01 </wgt>
<wgt id='1203'> +1.0466901e+02 </wgt>
<wgt id='1204'> +8.9216183e+01 </wgt>
<wgt id='1205'> +8.5429685e+01 </wgt>
<wgt id='1206'> +9.1578730e+01 </wgt>
<wgt id='1207'> +9.4185741e+01 </wgt>
<wgt id='1208'> +8.1064486e+01 </wgt>
<wgt id='1209'> +8.5508679e+01 </wgt>
<wgt id='1210'> +9.1154809e+01 </wgt>
<wgt id='1211'> +8.2746515e+01 </wgt>
<wgt id='1212'> +8.7230132e+01 </wgt>
<wgt id='1213'> +9.1072304e+01 </wgt>
<wgt id='1214'> +8.6145139e+01 </wgt>
<wgt id='1215'> +7.8713546e+01 </wgt>
<wgt id='1216'> +8.5333197e+01 </wgt>
<wgt id='1217'> +8.5545683e+01 </wgt>
<wgt id='1218'> +8.5013345e+01 </wgt>
<wgt id='1219'> +8.5319889e+01 </wgt>
<wgt id='1220'> +8.5172300e+01 </wgt>
<wgt id='1221'> +8.5070207e+01 </wgt>
<wgt id='1222'> +8.5723418e+01 </wgt>
<wgt id='1223'> +8.4867042e+01 </wgt>
<wgt id='1224'> +8.5501264e+01 </wgt>
<wgt id='1225'> +8.4872673e+01 </wgt>
<wgt id='1226'> +8.6553406e+01 </wgt>
<wgt id='1227'> +8.5861879e+01 </wgt>
<wgt id='1228'> +8.5029253e+01 </wgt>
<wgt id='1229'> +8.4930614e+01 </wgt>
<wgt id='1230'> +8.4416538e+01 </wgt>
<wgt id='1231'> +8.6903445e+01 </wgt>
<wgt id='1232'> +8.3957217e+01 </wgt>
<wgt id='1233'> +8.5831228e+01 </wgt>
<wgt id='1234'> +8.4656787e+01 </wgt>
<wgt id='1235'> +8.6113637e+01 </wgt>
<wgt id='1236'> +8.6876840e+01 </wgt>
<wgt id='1237'> +8.3545917e+01 </wgt>
<wgt id='1238'> +8.5100512e+01 </wgt>
<wgt id='1239'> +8.5542684e+01 </wgt>
<wgt id='1240'> +8.4858321e+01 </wgt>
<wgt id='1241'> +8.6342993e+01 </wgt>
<wgt id='1242'> +8.5367417e+01 </wgt>
<wgt id='1243'> +8.5825466e+01 </wgt>
<wgt id='1244'> +8.5851257e+01 </wgt>
<wgt id='1245'> +8.5155081e+01 </wgt>
<wgt id='1246'> +8.4654423e+01 </wgt>
<wgt id='1247'> +8.5437592e+01 </wgt>
<wgt id='1248'> +8.5281829e+01 </wgt>
<wgt id='1249'> +8.4184447e+01 </wgt>
<wgt id='1250'> +8.5887082e+01 </wgt>
<wgt id='1251'> +8.4697366e+01 </wgt>
<wgt id='1252'> +8.5399093e+01 </wgt>
<wgt id='1253'> +8.5257870e+01 </wgt>
<wgt id='1254'> +8.6021380e+01 </wgt>
<wgt id='1255'> +8.5039381e+01 </wgt>
<wgt id='1256'> +8.4827627e+01 </wgt>
<wgt id='1257'> +8.5902643e+01 </wgt>
<wgt id='1258'> +8.5538908e+01 </wgt>
<wgt id='1259'> +8.4718279e+01 </wgt>
<wgt id='1260'> +8.5292623e+01 </wgt>
<wgt id='1261'> +8.5232770e+01 </wgt>
<wgt id='1262'> +8.5381186e+01 </wgt>
<wgt id='1263'> +8.5226174e+01 </wgt>
<wgt id='1264'> +8.4319266e+01 </wgt>
<wgt id='1265'> +8.5313273e+01 </wgt>
<wgt id='1266'> +8.6002722e+01 </wgt>
<wgt id='1267'> +8.5690013e+01 </wgt>
<wgt id='1268'> +8.5551913e+01 </wgt>
<wgt id='1269'> +8.5264519e+01 </wgt>
<wgt id='1270'> +8.5106199e+01 </wgt>
<wgt id='1271'> +8.5438219e+01 </wgt>
<wgt id='1272'> +8.5411001e+01 </wgt>
<wgt id='1273'> +8.5093993e+01 </wgt>
<wgt id='1274'> +8.4980517e+01 </wgt>
<wgt id='1275'> +8.5177729e+01 </wgt>
<wgt id='1276'> +8.5467660e+01 </wgt>
<wgt id='1277'> +8.5550513e+01 </wgt>
<wgt id='1278'> +8.5558569e+01 </wgt>
<wgt id='1279'> +8.5704207e+01 </wgt>
<wgt id='1280'> +8.5281294e+01 </wgt>
<wgt id='1281'> +8.5232926e+01 </wgt>
<wgt id='1282'> +8.5442279e+01 </wgt>
<wgt id='1283'> +8.5543173e+01 </wgt>
<wgt id='1284'> +8.5536181e+01 </wgt>
<wgt id='1285'> +8.5090918e+01 </wgt>
<wgt id='1286'> +8.5266150e+01 </wgt>
<wgt id='1287'> +8.5234377e+01 </wgt>
<wgt id='1288'> +8.5300147e+01 </wgt>
<wgt id='1289'> +8.5304607e+01 </wgt>
<wgt id='1290'> +8.5420273e+01 </wgt>
<wgt id='1291'> +8.5486324e+01 </wgt>
<wgt id='1292'> +8.5166673e+01 </wgt>
<wgt id='1293'> +8.5439043e+01 </wgt>
<wgt id='1294'> +8.5382828e+01 </wgt>
<wgt id='1295'> +8.5520526e+01 </wgt>
<wgt id='1296'> +8.5365056e+01 </wgt>
<wgt id='1297'> +8.5489996e+01 </wgt>
<wgt id='1298'> +8.5154032e+01 </wgt>
<wgt id='1299'> +8.5331387e+01 </wgt>
<wgt id='1300'> +8.5381488e+01 </wgt>
<wgt id='1301'> +8.5284475e+01 </wgt>
<wgt id='1302'> +8.5358364e+01 </wgt>
<wgt id='1303'> +8.5263045e+01 </wgt>
<wgt id='1304'> +8.5313632e+01 </wgt>
<wgt id='1305'> +8.5319426e+01 </wgt>
<wgt id='1306'> +8.5378043e+01 </wgt>
<wgt id='1307'> +8.5318300e+01 </wgt>
<wgt id='1308'> +8.5376135e+01 </wgt>
<wgt id='1309'> +8.5423575e+01 </wgt>
<wgt id='1310'> +8.5396924e+01 </wgt>
<wgt id='1311'> +8.5331654e+01 </wgt>
<wgt id='1312'> +8.5421060e+01 </wgt>
<wgt id='1313'> +8.5429506e+01 </wgt>
<wgt id='1314'> +8.5292511e+01 </wgt>
<wgt id='1315'> +8.5307269e+01 </wgt>
<wgt id='1316'> +8.5291321e+01 </wgt>
<wgt id='1317'> +8.3884187e+01 </wgt>
<wgt id='1318'> +8.7172584e+01 </wgt>
<wgt id='1319'> +3.9872896e+01 </wgt>
<wgt id='1320'> +8.2535708e+01 </wgt>
<wgt id='1321'> +8.2804820e+01 </wgt>
<wgt id='1322'> +8.2855708e+01 </wgt>
<wgt id='1323'> +8.5851209e+01 </wgt>
<wgt id='1324'> +8.0681843e+01 </wgt>
<wgt id='1325'> +8.3874187e+01 </wgt>
<wgt id='1326'> +8.1735225e+01 </wgt>
<wgt id='1327'> +8.3594174e+01 </wgt>
<wgt id='1328'> +8.2095339e+01 </wgt>
<wgt id='1329'> +8.0903799e+01 </wgt>
<wgt id='1330'> +8.3401028e+01 </wgt>
<wgt id='1331'> +8.1450628e+01 </wgt>
<wgt id='1332'> +8.3572195e+01 </wgt>
<wgt id='1333'> +8.1279899e+01 </wgt>
<wgt id='1334'> +8.2627579e+01 </wgt>
<wgt id='1335'> +7.3349217e+01 </wgt>
<wgt id='1336'> +9.2417004e+01 </wgt>
<wgt id='1337'> +8.1146194e+01 </wgt>
<wgt id='1338'> +8.4116867e+01 </wgt>
<wgt id='1339'> +8.2395495e+01 </wgt>
<wgt id='1340'> +8.2608907e+01 </wgt>
<wgt id='1341'> +8.1371697e+01 </wgt>
<wgt id='1342'> +8.4718165e+01 </wgt>
<wgt id='1343'> +8.2176104e+01 </wgt>
<wgt id='1344'> +8.2778510e+01 </wgt>
<wgt id='1345'> +8.2000624e+01 </wgt>
<wgt id='1346'> +8.3052208e+01 </wgt>
<wgt id='1347'> +8.2379597e+01 </wgt>
<wgt id='1348'> +8.2670989e+01 </wgt>
<wgt id='1349'> +8.2406473e+01 </wgt>
<wgt id='1350'> +8.2573662e+01 </wgt>
<wgt id='1351'> +8.2576632e+01 </wgt>
<wgt id='1352'> +8.2455952e+01 </wgt>
<wgt id='1353'> +8.2510767e+01 </wgt>
<wgt id='1354'> +8.2516877e+01 </wgt>
<wgt id='1355'> +8.3730142e+01 </wgt>
<wgt id='1356'> +8.1399401e+01 </wgt>
<wgt id='1357'> +8.3135917e+01 </wgt>
<wgt id='1358'> +8.1065051e+01 </wgt>
<wgt id='1359'> +8.3657692e+01 </wgt>
<wgt id='1360'> +8.0239001e+01 </wgt>
<wgt id='1361'> +8.2812351e+01 </wgt>
<wgt id='1362'> +8.2416145e+01 </wgt>
<wgt id='1363'> +8.2339815e+01 </wgt>
<wgt id='1364'> +8.2478575e+01 </wgt>
<wgt id='1365'> +7.9040102e+01 </wgt>
<wgt id='1366'> +8.3912067e+01 </wgt>
<wgt id='1367'> +8.1404014e+01 </wgt>
<wgt id='1368'> +8.2796588e+01 </wgt>
<wgt id='1369'> +8.3639410e+01 </wgt>
<wgt id='1370'> +7.8972225e+01 </wgt>
<wgt id='1371'> +8.1903552e+01 </wgt>
<wgt id='1372'> +8.1742188e+01 </wgt>
<wgt id='1373'> +8.0021642e+01 </wgt>
<wgt id='1374'> +8.3184945e+01 </wgt>
<wgt id='1375'> +8.4415900e+01 </wgt>
<wgt id='1376'> +7.5010448e+01 </wgt>
<wgt id='1377'> +8.0748771e+01 </wgt>
<wgt id='1378'> +8.4025888e+01 </wgt>
<wgt id='1379'> +8.3420701e+01 </wgt>
<wgt id='1380'> +8.1826760e+01 </wgt>
<wgt id='1381'> +8.4493078e+01 </wgt>
<wgt id='1382'> +7.0434714e+01 </wgt>
<wgt id='1383'> +8.4880004e+01 </wgt>
<wgt id='1384'> +8.3651901e+01 </wgt>
<wgt id='1385'> +9.4929620e+01 </wgt>
<wgt id='1386'> +9.5211061e+01 </wgt>
<wgt id='1387'> +9.4609870e+01 </wgt>
<wgt id='1388'> +9.4394730e+01 </wgt>
<wgt id='1389'> +9.5840897e+01 </wgt>
<wgt id='1390'> +9.4930213e+01 </wgt>
<wgt id='1391'> +9.4925247e+01 </wgt>
<wgt id='1392'> +9.5145792e+01 </wgt>
<wgt id='1393'> +9.4771150e+01 </wgt>
<wgt id='1394'> +9.4523107e+01 </wgt>
<wgt id='1395'> +9.5427834e+01 </wgt>
<wgt id='1396'> +9.4005891e+01 </wgt>
<wgt id='1397'> +9.5402526e+01 </wgt>
<wgt id='1398'> +9.4840402e+01 </wgt>
<wgt id='1399'> +9.4983945e+01 </wgt>
<wgt id='1400'> +9.4967234e+01 </wgt>
<wgt id='1401'> +9.4880975e+01 </wgt>
<wgt id='1402'> +9.4323729e+01 </wgt>
<wgt id='1403'> +9.5203954e+01 </wgt>
<wgt id='1404'> +9.6388970e+01 </wgt>
<wgt id='1405'> +9.4211193e+01 </wgt>
<wgt id='1406'> +9.6713240e+01 </wgt>
<wgt id='1407'> +9.1716970e+01 </wgt>
<wgt id='1408'> +9.6844474e+01 </wgt>
<wgt id='1409'> +9.1084866e+01 </wgt>
<wgt id='1410'> +9.5296749e+01 </wgt>
<wgt id='1411'> +9.3946280e+01 </wgt>
<wgt id='1412'> +9.4416101e+01 </wgt>
<wgt id='1413'> +9.5540277e+01 </wgt>
<wgt id='1414'> +9.4918912e+01 </wgt>
<wgt id='1415'> +9.4966733e+01 </wgt>
<wgt id='1416'> +9.5133591e+01 </wgt>
<wgt id='1417'> +9.4803914e+01 </wgt>
<wgt id='1418'> +9.5198867e+01 </wgt>
<wgt id='1419'> +9.4337381e+01 </wgt>
<wgt id='1420'> +9.4545647e+01 </wgt>
<wgt id='1421'> +9.4773666e+01 </wgt>
<wgt id='1422'> +9.4183802e+01 </wgt>
<wgt id='1423'> +9.5690551e+01 </wgt>
<wgt id='1424'> +9.5004853e+01 </wgt>
<wgt id='1425'> +9.4517262e+01 </wgt>
<wgt id='1426'> +9.2509796e+01 </wgt>
<wgt id='1427'> +9.5105205e+01 </wgt>
<wgt id='1428'> +9.3584860e+01 </wgt>
<wgt id='1429'> +9.6013755e+01 </wgt>
<wgt id='1430'> +9.3511089e+01 </wgt>
<wgt id='1431'> +9.3485391e+01 </wgt>
<wgt id='1432'> +9.4208830e+01 </wgt>
<wgt id='1433'> +9.2527319e+01 </wgt>
<wgt id='1434'> +9.4457502e+01 </wgt>
<wgt id='1435'> +9.5061476e+01 </wgt>
<wgt id='1436'> +8.9565970e+01 </wgt>
<wgt id='1437'> +8.9554498e+01 </wgt>
<wgt id='1438'> +8.9594002e+01 </wgt>
<wgt id='1439'> +8.9567654e+01 </wgt>
<wgt id='1440'> +8.9506218e+01 </wgt>
<wgt id='1441'> +8.8861772e+01 </wgt>
<wgt id='1442'> +8.8737651e+01 </wgt>
<wgt id='1443'> +8.9527204e+01 </wgt>
<wgt id='1444'> +8.9311387e+01 </wgt>
<wgt id='1445'> +8.9258362e+01 </wgt>
<wgt id='1446'> +8.9655546e+01 </wgt>
<wgt id='1447'> +8.9556968e+01 </wgt>
<wgt id='1448'> +8.9536989e+01 </wgt>
<wgt id='1449'> +8.9558899e+01 </wgt>
<wgt id='1450'> +8.9937810e+01 </wgt>
<wgt id='1451'> +8.9532583e+01 </wgt>
<wgt id='1452'> +8.9388470e+01 </wgt>
<wgt id='1453'> +8.9628877e+01 </wgt>
<wgt id='1454'> +8.9758182e+01 </wgt>
<wgt id='1455'> +8.9469905e+01 </wgt>
<wgt id='1456'> +8.9489251e+01 </wgt>
<wgt id='1457'> +8.9090851e+01 </wgt>
<wgt id='1458'> +8.9791509e+01 </wgt>
<wgt id='1459'> +8.9377092e+01 </wgt>
<wgt id='1460'> +8.9873570e+01 </wgt>
<wgt id='1461'> +8.9818007e+01 </wgt>
<wgt id='1462'> +8.9711945e+01 </wgt>
<wgt id='1463'> +8.9433634e+01 </wgt>
<wgt id='1464'> +9.0255029e+01 </wgt>
<wgt id='1465'> +8.8631766e+01 </wgt>
<wgt id='1466'> +8.0946101e+01 </wgt>
<wgt id='1467'> +8.1118756e+01 </wgt>
<wgt id='1468'> +8.1578111e+01 </wgt>
<wgt id='1469'> +7.8962117e+01 </wgt>
<wgt id='1470'> +8.1768824e+01 </wgt>
<wgt id='1471'> +8.0075514e+01 </wgt>
<wgt id='1472'> +8.1337472e+01 </wgt>
<wgt id='1473'> +8.1709527e+01 </wgt>
<wgt id='1474'> +8.3951897e+01 </wgt>
<wgt id='1475'> +7.9638656e+01 </wgt>
<wgt id='1476'> +7.9955926e+01 </wgt>
<wgt id='1477'> +8.2847190e+01 </wgt>
<wgt id='1478'> +8.0353145e+01 </wgt>
<wgt id='1479'> +8.0118579e+01 </wgt>
<wgt id='1480'> +8.3085254e+01 </wgt>
<wgt id='1481'> +7.9717794e+01 </wgt>
<wgt id='1482'> +8.4221325e+01 </wgt>
<wgt id='1483'> +7.9446832e+01 </wgt>
<wgt id='1484'> +7.9419397e+01 </wgt>
<wgt id='1485'> +8.2371798e+01 </wgt>
<wgt id='1486'> +8.2436937e+01 </wgt>
<wgt id='1487'> +8.0447830e+01 </wgt>
<wgt id='1488'> +8.0477806e+01 </wgt>
<wgt id='1489'> +7.9537953e+01 </wgt>
<wgt id='1490'> +8.0924583e+01 </wgt>
<wgt id='1491'> +8.1542737e+01 </wgt>
<wgt id='1492'> +8.1008015e+01 </wgt>
<wgt id='1493'> +8.0609588e+01 </wgt>
<wgt id='1494'> +8.0359577e+01 </wgt>
<wgt id='1495'> +8.1112374e+01 </wgt>
<wgt id='1496'> +8.0870050e+01 </wgt>
<wgt id='1497'> +8.0702070e+01 </wgt>
<wgt id='1498'> +8.1037901e+01 </wgt>
<wgt id='1499'> +8.0995969e+01 </wgt>
<wgt id='1500'> +8.0960478e+01 </wgt>
<wgt id='1501'> +8.1618894e+01 </wgt>
<wgt id='1502'> +8.0584096e+01 </wgt>
<wgt id='1503'> +8.1022625e+01 </wgt>
<wgt id='1504'> +8.0571424e+01 </wgt>
<wgt id='1505'> +8.0925359e+01 </wgt>
<wgt id='1506'> +8.1018047e+01 </wgt>
<wgt id='1507'> +8.0899690e+01 </wgt>
<wgt id='1508'> +8.1206666e+01 </wgt>
<wgt id='1509'> +8.0814280e+01 </wgt>
<wgt id='1510'> +8.1324845e+01 </wgt>
<wgt id='1511'> +8.1466748e+01 </wgt>
<wgt id='1512'> +8.0846328e+01 </wgt>
<wgt id='1513'> +8.0978097e+01 </wgt>
<wgt id='1514'> +8.0888810e+01 </wgt>
<wgt id='1515'> +8.1137314e+01 </wgt>
<wgt id='1516'> +8.0905008e+01 </wgt>
<wgt id='1517'> +8.1131963e+01 </wgt>
<wgt id='1518'> +8.0986714e+01 </wgt>
<wgt id='1519'> +8.0852020e+01 </wgt>
<wgt id='1520'> +8.1091983e+01 </wgt>
<wgt id='1521'> +8.1320455e+01 </wgt>
<wgt id='1522'> +8.1366959e+01 </wgt>
<wgt id='1523'> +8.1037160e+01 </wgt>
<wgt id='1524'> +8.1070268e+01 </wgt>
<wgt id='1525'> +8.0858977e+01 </wgt>
<wgt id='1526'> +8.0818066e+01 </wgt>
<wgt id='1527'> +8.1086622e+01 </wgt>
<wgt id='1528'> +8.0946657e+01 </wgt>
<wgt id='1529'> +8.1030585e+01 </wgt>
<wgt id='1530'> +8.0966186e+01 </wgt>
<wgt id='1531'> +8.1006996e+01 </wgt>
<wgt id='1532'> +8.1001773e+01 </wgt>
<wgt id='1533'> +8.0967594e+01 </wgt>
<wgt id='1534'> +8.0976191e+01 </wgt>
<wgt id='1535'> +8.0923682e+01 </wgt>
<wgt id='1536'> +8.0932611e+01 </wgt>
<wgt id='1537'> +8.1076088e+01 </wgt>
<wgt id='1538'> +8.0927650e+01 </wgt>
<wgt id='1539'> +8.0895708e+01 </wgt>
<wgt id='1540'> +8.0911637e+01 </wgt>
<wgt id='1541'> +8.0927280e+01 </wgt>
<wgt id='1542'> +8.0899079e+01 </wgt>
<wgt id='1543'> +8.0928118e+01 </wgt>
<wgt id='1544'> +8.0938452e+01 </wgt>
<wgt id='1545'> +8.0929772e+01 </wgt>
<wgt id='1546'> +8.0912646e+01 </wgt>
<wgt id='1547'> +8.0997145e+01 </wgt>
<wgt id='1548'> +8.0889332e+01 </wgt>
<wgt id='1549'> +8.0972863e+01 </wgt>
<wgt id='1550'> +8.0990646e+01 </wgt>
<wgt id='1551'> +8.0937715e+01 </wgt>
<wgt id='1552'> +8.0956206e+01 </wgt>
<wgt id='1553'> +8.0954521e+01 </wgt>
<wgt id='1554'> +8.0937941e+01 </wgt>
<wgt id='1555'> +8.0964483e+01 </wgt>
<wgt id='1556'> +8.0925829e+01 </wgt>
<wgt id='1557'> +8.0916510e+01 </wgt>
<wgt id='1558'> +8.0972985e+01 </wgt>
<wgt id='1559'> +8.0958205e+01 </wgt>
<wgt id='1560'> +8.0916611e+01 </wgt>
<wgt id='1561'> +8.0948626e+01 </wgt>
<wgt id='1562'> +8.0932749e+01 </wgt>
<wgt id='1563'> +8.0945480e+01 </wgt>
<wgt id='1564'> +8.0939277e+01 </wgt>
<wgt id='1565'> +8.0953780e+01 </wgt>
<wgt id='1566'> +8.0897891e+01 </wgt>
<wgt id='1567'> +7.9698710e+01 </wgt>
<wgt id='1568'> +8.2556695e+01 </wgt>
<wgt id='1569'> +8.1658020e+01 </wgt>
<wgt id='1570'> +8.2774980e+01 </wgt>
<wgt id='1571'> +8.1548210e+01 </wgt>
<wgt id='1572'> +8.1553995e+01 </wgt>
<wgt id='1573'> +8.0456328e+01 </wgt>
<wgt id='1574'> +8.0174724e+01 </wgt>
<wgt id='1575'> +8.0340910e+01 </wgt>
<wgt id='1576'> +8.0642038e+01 </wgt>
<wgt id='1577'> +8.1791043e+01 </wgt>
<wgt id='1578'> +8.1838319e+01 </wgt>
<wgt id='1579'> +8.3202415e+01 </wgt>
<wgt id='1580'> +7.8974426e+01 </wgt>
<wgt id='1581'> +8.0483760e+01 </wgt>
<wgt id='1582'> +8.1109486e+01 </wgt>
<wgt id='1583'> +8.0344021e+01 </wgt>
<wgt id='1584'> +8.1255993e+01 </wgt>
<wgt id='1585'> +8.0881039e+01 </wgt>
<wgt id='1586'> +8.4015650e+01 </wgt>
<wgt id='1587'> +7.9249899e+01 </wgt>
<wgt id='1588'> +8.2656241e+01 </wgt>
<wgt id='1589'> +8.1967012e+01 </wgt>
<wgt id='1590'> +8.2040869e+01 </wgt>
<wgt id='1591'> +8.3336251e+01 </wgt>
<wgt id='1592'> +8.3326854e+01 </wgt>
<wgt id='1593'> +8.0732271e+01 </wgt>
<wgt id='1594'> +8.1492367e+01 </wgt>
<wgt id='1595'> +8.2396757e+01 </wgt>
<wgt id='1596'> +8.1192672e+01 </wgt>
<wgt id='1597'> +8.2084505e+01 </wgt>
<wgt id='1598'> +8.1993685e+01 </wgt>
<wgt id='1599'> +8.1694635e+01 </wgt>
<wgt id='1600'> +8.1766693e+01 </wgt>
<wgt id='1601'> +8.1915127e+01 </wgt>
<wgt id='1602'> +8.1689381e+01 </wgt>
<wgt id='1603'> +8.1507063e+01 </wgt>
<wgt id='1604'> +8.1998771e+01 </wgt>
<wgt id='1605'> +8.1607048e+01 </wgt>
<wgt id='1606'> +8.2080060e+01 </wgt>
<wgt id='1607'> +8.1865837e+01 </wgt>
<wgt id='1608'> +8.1590859e+01 </wgt>
<wgt id='1609'> +8.1142074e+01 </wgt>
<wgt id='1610'> +8.1298214e+01 </wgt>
<wgt id='1611'> +8.1350623e+01 </wgt>
<wgt id='1612'> +8.1198559e+01 </wgt>
<wgt id='1613'> +8.1832023e+01 </wgt>
<wgt id='1614'> +8.1703389e+01 </wgt>
<wgt id='1615'> +8.1620517e+01 </wgt>
<wgt id='1616'> +8.1267559e+01 </wgt>
<wgt id='1617'> +8.1893837e+01 </wgt>
<wgt id='1618'> +8.1913040e+01 </wgt>
<wgt id='1619'> +8.1236922e+01 </wgt>
<wgt id='1620'> +8.1353834e+01 </wgt>
<wgt id='1621'> +8.1726209e+01 </wgt>
<wgt id='1622'> +8.1700502e+01 </wgt>
<wgt id='1623'> +8.1669356e+01 </wgt>
<wgt id='1624'> +8.1924984e+01 </wgt>
<wgt id='1625'> +8.1574710e+01 </wgt>
<wgt id='1626'> +8.1472583e+01 </wgt>
<wgt id='1627'> +8.1517384e+01 </wgt>
<wgt id='1628'> +8.1523366e+01 </wgt>
<wgt id='1629'> +8.1494970e+01 </wgt>
<wgt id='1630'> +8.1638577e+01 </wgt>
<wgt id='1631'> +8.1802824e+01 </wgt>
<wgt id='1632'> +8.1673760e+01 </wgt>
<wgt id='1633'> +8.1755890e+01 </wgt>
<wgt id='1634'> +8.1663782e+01 </wgt>
<wgt id='1635'> +8.1610087e+01 </wgt>
<wgt id='1636'> +8.1640888e+01 </wgt>
<wgt id='1637'> +8.1633588e+01 </wgt>
<wgt id='1638'> +8.1534342e+01 </wgt>
<wgt id='1639'> +8.1607866e+01 </wgt>
<wgt id='1640'> +8.1777229e+01 </wgt>
<wgt id='1641'> +8.1653581e+01 </wgt>
<wgt id='1642'> +8.1682128e+01 </wgt>
<wgt id='1643'> +8.1658665e+01 </wgt>
<wgt id='1644'> +8.1736402e+01 </wgt>
<wgt id='1645'> +8.1723463e+01 </wgt>
<wgt id='1646'> +8.1669215e+01 </wgt>
<wgt id='1647'> +8.1687549e+01 </wgt>
<wgt id='1648'> +8.1660372e+01 </wgt>
<wgt id='1649'> +8.1811511e+01 </wgt>
<wgt id='1650'> +8.1685355e+01 </wgt>
<wgt id='1651'> +8.1718926e+01 </wgt>
<wgt id='1652'> +8.1702605e+01 </wgt>
<wgt id='1653'> +8.1573735e+01 </wgt>
<wgt id='1654'> +8.1697060e+01 </wgt>
<wgt id='1655'> +8.1664899e+01 </wgt>
<wgt id='1656'> +8.1603933e+01 </wgt>
<wgt id='1657'> +8.1658276e+01 </wgt>
<wgt id='1658'> +8.1658976e+01 </wgt>
<wgt id='1659'> +8.1668574e+01 </wgt>
<wgt id='1660'> +8.1625264e+01 </wgt>
<wgt id='1661'> +8.1656084e+01 </wgt>
<wgt id='1662'> +8.1620615e+01 </wgt>
<wgt id='1663'> +8.1657123e+01 </wgt>
<wgt id='1664'> +8.1727055e+01 </wgt>
<wgt id='1665'> +8.1624050e+01 </wgt>
<wgt id='1666'> +8.1685700e+01 </wgt>
<wgt id='1667'> +8.1657914e+01 </wgt>
<wgt id='1668'> +8.1630476e+01 </wgt>
<wgt id='1669'> +8.1629588e+01 </wgt>
<wgt id='1670'> +8.0473580e+01 </wgt>
<wgt id='1671'> +8.2573156e+01 </wgt>
<wgt id='1672'> +8.0956232e+01 </wgt>
<wgt id='1673'> +8.0139817e+01 </wgt>
<wgt id='1674'> +8.6983726e+01 </wgt>
<wgt id='1675'> +8.0932582e+01 </wgt>
<wgt id='1676'> +8.2051798e+01 </wgt>
<wgt id='1677'> +8.2269807e+01 </wgt>
<wgt id='1678'> +8.1153569e+01 </wgt>
<wgt id='1679'> +8.0762328e+01 </wgt>
<wgt id='1680'> +8.0986062e+01 </wgt>
<wgt id='1681'> +8.0492228e+01 </wgt>
<wgt id='1682'> +8.0685096e+01 </wgt>
<wgt id='1683'> +8.2441699e+01 </wgt>
<wgt id='1684'> +8.0710900e+01 </wgt>
<wgt id='1685'> +8.0793842e+01 </wgt>
<wgt id='1686'> +8.1760200e+01 </wgt>
<wgt id='1687'> +8.1397070e+01 </wgt>
<wgt id='1688'> +8.1512439e+01 </wgt>
<wgt id='1689'> +7.9992783e+01 </wgt>
<wgt id='1690'> +8.0751070e+01 </wgt>
<wgt id='1691'> +8.0813503e+01 </wgt>
<wgt id='1692'> +8.0446809e+01 </wgt>
<wgt id='1693'> +8.1363119e+01 </wgt>
<wgt id='1694'> +8.0787471e+01 </wgt>
<wgt id='1695'> +8.0763775e+01 </wgt>
<wgt id='1696'> +8.1041257e+01 </wgt>
<wgt id='1697'> +8.1055571e+01 </wgt>
<wgt id='1698'> +8.0278555e+01 </wgt>
<wgt id='1699'> +8.0797329e+01 </wgt>
<wgt id='1700'> +8.0429320e+01 </wgt>
<wgt id='1701'> +8.1142168e+01 </wgt>
<wgt id='1702'> +8.0933793e+01 </wgt>
<wgt id='1703'> +7.9698710e+01 </wgt>
<wgt id='1704'> +8.2556695e+01 </wgt>
<wgt id='1705'> +8.1661314e+01 </wgt>
<wgt id='1706'> +8.4474158e+01 </wgt>
<wgt id='1707'> +7.9940727e+01 </wgt>
<wgt id='1708'> +8.1871330e+01 </wgt>
<wgt id='1709'> +8.2536291e+01 </wgt>
<wgt id='1710'> +8.0867345e+01 </wgt>
<wgt id='1711'> +8.1922142e+01 </wgt>
<wgt id='1712'> +8.1783937e+01 </wgt>
<wgt id='1713'> +8.1892146e+01 </wgt>
<wgt id='1714'> +8.4039580e+01 </wgt>
<wgt id='1715'> +8.1386832e+01 </wgt>
<wgt id='1716'> +7.8867802e+01 </wgt>
<wgt id='1717'> +8.1279662e+01 </wgt>
<wgt id='1718'> +8.1820857e+01 </wgt>
<wgt id='1719'> +8.2060150e+01 </wgt>
<wgt id='1720'> +8.1762006e+01 </wgt>
<wgt id='1721'> +8.1718706e+01 </wgt>
<wgt id='1722'> +8.2257717e+01 </wgt>
<wgt id='1723'> +8.1913051e+01 </wgt>
<wgt id='1724'> +8.1933770e+01 </wgt>
<wgt id='1725'> +8.1975625e+01 </wgt>
<wgt id='1726'> +8.1997141e+01 </wgt>
<wgt id='1727'> +8.1056188e+01 </wgt>
<wgt id='1728'> +8.1509641e+01 </wgt>
<wgt id='1729'> +8.0806344e+01 </wgt>
<wgt id='1730'> +8.2097644e+01 </wgt>
<wgt id='1731'> +8.2152364e+01 </wgt>
<wgt id='1732'> +8.0694436e+01 </wgt>
<wgt id='1733'> +8.0944549e+01 </wgt>
<wgt id='1734'> +8.2596173e+01 </wgt>
<wgt id='1735'> +8.0861626e+01 </wgt>
<wgt id='1736'> +8.0473580e+01 </wgt>
<wgt id='1737'> +8.2573156e+01 </wgt>
<wgt id='1738'> +9.2378266e+01 </wgt>
<wgt id='1739'> +9.2403064e+01 </wgt>
<wgt id='1740'> +9.2353375e+01 </wgt>
<wgt id='1741'> +9.2454108e+01 </wgt>
<wgt id='1742'> +9.2302115e+01 </wgt>
<wgt id='1743'> +9.2563870e+01 </wgt>
<wgt id='1744'> +9.2192821e+01 </wgt>
<wgt id='1745'> +9.2343544e+01 </wgt>
<wgt id='1746'> +9.2411065e+01 </wgt>
<wgt id='1747'> +9.2708349e+01 </wgt>
<wgt id='1748'> +9.2050325e+01 </wgt>
<wgt id='1749'> +9.2442201e+01 </wgt>
<wgt id='1750'> +9.2323312e+01 </wgt>
<wgt id='1751'> +9.2161935e+01 </wgt>
<wgt id='1752'> +9.2595944e+01 </wgt>
<wgt id='1753'> +9.2240066e+01 </wgt>
<wgt id='1754'> +9.2408401e+01 </wgt>
<wgt id='1755'> +9.2356880e+01 </wgt>
<wgt id='1756'> +9.2358289e+01 </wgt>
<wgt id='1757'> +9.2100958e+01 </wgt>
<wgt id='1758'> +9.2646825e+01 </wgt>
<wgt id='1759'> +9.2265078e+01 </wgt>
<wgt id='1760'> +9.2384670e+01 </wgt>
<wgt id='1761'> +9.2482303e+01 </wgt>
<wgt id='1762'> +9.1833450e+01 </wgt>
<wgt id='1763'> +9.2716307e+01 </wgt>
<wgt id='1764'> +9.2168163e+01 </wgt>
<wgt id='1765'> +9.2467253e+01 </wgt>
<wgt id='1766'> +9.2358307e+01 </wgt>
<wgt id='1767'> +9.2378266e+01 </wgt>
<wgt id='1768'> +8.3389798e+01 </wgt>
<wgt id='1769'> +1.0305869e+02 </wgt>
<wgt id='1770'> +7.8607932e+01 </wgt>
<wgt id='1771'> +9.3603129e+01 </wgt>
<wgt id='1772'> +9.2719498e+01 </wgt>
<wgt id='1773'> +9.2120506e+01 </wgt>
<wgt id='1774'> +9.2146374e+01 </wgt>
<wgt id='1775'> +9.2577514e+01 </wgt>
<wgt id='1776'> +9.1733183e+01 </wgt>
<wgt id='1777'> +9.2987283e+01 </wgt>
<wgt id='1778'> +9.2566246e+01 </wgt>
<wgt id='1779'> +9.2714671e+01 </wgt>
<wgt id='1780'> +8.9865386e+01 </wgt>
<wgt id='1781'> +8.9587032e+01 </wgt>
<wgt id='1782'> +8.9648146e+01 </wgt>
<wgt id='1783'> +8.9517750e+01 </wgt>
<wgt id='1784'> +8.9556539e+01 </wgt>
<wgt id='1785'> +8.9609064e+01 </wgt>
<wgt id='1786'> +8.9761510e+01 </wgt>
<wgt id='1787'> +8.9404547e+01 </wgt>
<wgt id='1788'> +8.9528462e+01 </wgt>
<wgt id='1789'> +8.9633046e+01 </wgt>
<wgt id='1790'> +8.9810473e+01 </wgt>
<wgt id='1791'> +8.9356521e+01 </wgt>
<wgt id='1792'> +8.9749629e+01 </wgt>
<wgt id='1793'> +8.9416763e+01 </wgt>
<wgt id='1794'> +8.9349310e+01 </wgt>
<wgt id='1795'> +8.9815977e+01 </wgt>
<wgt id='1796'> +8.9437127e+01 </wgt>
<wgt id='1797'> +8.9673850e+01 </wgt>
<wgt id='1798'> +8.9657052e+01 </wgt>
<wgt id='1799'> +8.9489547e+01 </wgt>
<wgt id='1800'> +8.9362290e+01 </wgt>
<wgt id='1801'> +8.9797973e+01 </wgt>
<wgt id='1802'> +8.9226461e+01 </wgt>
<wgt id='1803'> +8.9807677e+01 </wgt>
<wgt id='1804'> +9.0323546e+01 </wgt>
<wgt id='1805'> +8.8848064e+01 </wgt>
<wgt id='1806'> +9.0461999e+01 </wgt>
<wgt id='1807'> +8.8551714e+01 </wgt>
<wgt id='1808'> +9.0414539e+01 </wgt>
<wgt id='1809'> +8.8889785e+01 </wgt>
<wgt id='1810'> +8.9555317e+01 </wgt>
<wgt id='1811'> +8.0387918e+01 </wgt>
<wgt id='1812'> +1.0046705e+02 </wgt>
<wgt id='1813'> +7.5693196e+01 </wgt>
<wgt id='1814'> +9.1179246e+01 </wgt>
<wgt id='1815'> +9.1334575e+01 </wgt>
<wgt id='1816'> +8.9132596e+01 </wgt>
<wgt id='1817'> +8.9290598e+01 </wgt>
<wgt id='1818'> +8.9635322e+01 </wgt>
<wgt id='1819'> +8.9796110e+01 </wgt>
<wgt id='1820'> +9.1828709e+01 </wgt>
<wgt id='1821'> +9.0339016e+01 </wgt>
<wgt id='1822'> +8.8966217e+01 </wgt>
<wgt id='1823'> +8.8433751e+01 </wgt>
<wgt id='1824'> +8.1950032e+01 </wgt>
<wgt id='1825'> +8.1925938e+01 </wgt>
<wgt id='1826'> +8.1902163e+01 </wgt>
<wgt id='1827'> +8.1877636e+01 </wgt>
<wgt id='1828'> +8.1853854e+01 </wgt>
<wgt id='1829'> +8.1829597e+01 </wgt>
<wgt id='1830'> +8.1805859e+01 </wgt>
<wgt id='1831'> +8.1781498e+01 </wgt>
<wgt id='1832'> +8.1757287e+01 </wgt>
<wgt id='1833'> +8.1733446e+01 </wgt>
<wgt id='1834'> +8.1709214e+01 </wgt>
<wgt id='1835'> +8.1685226e+01 </wgt>
<wgt id='1836'> +8.1661244e+01 </wgt>
<wgt id='1837'> +8.1637431e+01 </wgt>
<wgt id='1838'> +8.1613203e+01 </wgt>
<wgt id='1839'> +8.1589230e+01 </wgt>
<wgt id='1840'> +8.1565007e+01 </wgt>
<wgt id='1841'> +8.1540829e+01 </wgt>
<wgt id='1842'> +8.1517199e+01 </wgt>
<wgt id='1843'> +8.1492721e+01 </wgt>
<wgt id='1844'> +8.1469006e+01 </wgt>
<wgt id='1845'> +8.1444809e+01 </wgt>
<wgt id='1846'> +8.1421152e+01 </wgt>
<wgt id='1847'> +8.1396740e+01 </wgt>
<wgt id='1848'> +8.1373028e+01 </wgt>
<wgt id='1849'> +8.1348953e+01 </wgt>
<wgt id='1850'> +8.1324764e+01 </wgt>
<wgt id='1851'> +8.1300816e+01 </wgt>
<wgt id='1852'> +8.1276706e+01 </wgt>
<wgt id='1853'> +8.1253035e+01 </wgt>
<wgt id='1854'> +8.1228618e+01 </wgt>
<wgt id='1855'> +8.0975149e+01 </wgt>
<wgt id='1856'> +8.2075577e+01 </wgt>
<wgt id='1857'> +8.0865491e+01 </wgt>
<wgt id='1858'> +8.0871195e+01 </wgt>
<wgt id='1859'> +7.9777842e+01 </wgt>
<wgt id='1860'> +7.9499262e+01 </wgt>
<wgt id='1861'> +7.9673163e+01 </wgt>
<wgt id='1862'> +7.9973208e+01 </wgt>
<wgt id='1863'> +8.1106913e+01 </wgt>
<wgt id='1864'> +8.1151932e+01 </wgt>
<wgt id='1865'> +8.2506554e+01 </wgt>
<wgt id='1866'> +7.8318225e+01 </wgt>
<wgt id='1867'> +7.9813873e+01 </wgt>
<wgt id='1868'> +8.0433479e+01 </wgt>
<wgt id='1869'> +7.9672137e+01 </wgt>
<wgt id='1870'> +8.0564749e+01 </wgt>
<wgt id='1871'> +8.0212272e+01 </wgt>
<wgt id='1872'> +8.3311840e+01 </wgt>
<wgt id='1873'> +7.8584273e+01 </wgt>
<wgt id='1874'> +8.1973596e+01 </wgt>
<wgt id='1875'> +8.1288267e+01 </wgt>
<wgt id='1876'> +8.1350862e+01 </wgt>
<wgt id='1877'> +8.2643565e+01 </wgt>
<wgt id='1878'> +8.2631800e+01 </wgt>
<wgt id='1879'> +8.0051024e+01 </wgt>
<wgt id='1880'> +8.0806352e+01 </wgt>
<wgt id='1881'> +8.1704293e+01 </wgt>
<wgt id='1882'> +8.0519060e+01 </wgt>
<wgt id='1883'> +8.1401158e+01 </wgt>
<wgt id='1884'> +8.1305155e+01 </wgt>
<wgt id='1885'> +8.1008861e+01 </wgt>
<wgt id='1886'> +8.1091276e+01 </wgt>
<wgt id='1887'> +8.1225939e+01 </wgt>
<wgt id='1888'> +8.1006042e+01 </wgt>
<wgt id='1889'> +8.0824355e+01 </wgt>
<wgt id='1890'> +8.1312734e+01 </wgt>
<wgt id='1891'> +8.0924524e+01 </wgt>
<wgt id='1892'> +8.1396201e+01 </wgt>
<wgt id='1893'> +8.1180565e+01 </wgt>
<wgt id='1894'> +8.0903643e+01 </wgt>
<wgt id='1895'> +8.0466684e+01 </wgt>
<wgt id='1896'> +8.0617456e+01 </wgt>
<wgt id='1897'> +8.0671649e+01 </wgt>
<wgt id='1898'> +8.0525853e+01 </wgt>
<wgt id='1899'> +8.1147436e+01 </wgt>
<wgt id='1900'> +8.1020206e+01 </wgt>
<wgt id='1901'> +8.0937061e+01 </wgt>
<wgt id='1902'> +8.0589614e+01 </wgt>
<wgt id='1903'> +8.1209442e+01 </wgt>
<wgt id='1904'> +8.1225194e+01 </wgt>
<wgt id='1905'> +8.0559054e+01 </wgt>
<wgt id='1906'> +8.0672718e+01 </wgt>
<wgt id='1907'> +8.1043169e+01 </wgt>
<wgt id='1908'> +8.1013507e+01 </wgt>
<wgt id='1909'> +8.0984730e+01 </wgt>
<wgt id='1910'> +8.1242856e+01 </wgt>
<wgt id='1911'> +8.0890388e+01 </wgt>
<wgt id='1912'> +8.0792039e+01 </wgt>
<wgt id='1913'> +8.0837234e+01 </wgt>
<wgt id='1914'> +8.0842342e+01 </wgt>
<wgt id='1915'> +8.0816174e+01 </wgt>
<wgt id='1916'> +8.0957282e+01 </wgt>
<wgt id='1917'> +8.1115689e+01 </wgt>
<wgt id='1918'> +8.0989858e+01 </wgt>
<wgt id='1919'> +8.1071069e+01 </wgt>
<wgt id='1920'> +8.0977749e+01 </wgt>
<wgt id='1921'> +8.0926090e+01 </wgt>
<wgt id='1922'> +8.0955130e+01 </wgt>
<wgt id='1923'> +8.0953272e+01 </wgt>
<wgt id='1924'> +8.0855257e+01 </wgt>
<wgt id='1925'> +8.0930170e+01 </wgt>
<wgt id='1926'> +8.1091118e+01 </wgt>
<wgt id='1927'> +8.0972232e+01 </wgt>
<wgt id='1928'> +8.0996206e+01 </wgt>
<wgt id='1929'> +8.0974588e+01 </wgt>
<wgt id='1930'> +8.1052841e+01 </wgt>
<wgt id='1931'> +8.1039704e+01 </wgt>
<wgt id='1932'> +8.0981774e+01 </wgt>
<wgt id='1933'> +8.1004180e+01 </wgt>
<wgt id='1934'> +8.0978158e+01 </wgt>
<wgt id='1935'> +8.1124873e+01 </wgt>
<wgt id='1936'> +8.1007015e+01 </wgt>
<wgt id='1937'> +8.1033220e+01 </wgt>
<wgt id='1938'> +8.1018195e+01 </wgt>
<wgt id='1939'> +8.0893155e+01 </wgt>
<wgt id='1940'> +8.1013493e+01 </wgt>
<wgt id='1941'> +8.0984869e+01 </wgt>
<wgt id='1942'> +8.0919387e+01 </wgt>
<wgt id='1943'> +8.0974619e+01 </wgt>
<wgt id='1944'> +8.0974203e+01 </wgt>
<wgt id='1945'> +8.0985952e+01 </wgt>
<wgt id='1946'> +8.0943297e+01 </wgt>
<wgt id='1947'> +8.0971276e+01 </wgt>
<wgt id='1948'> +8.0937843e+01 </wgt>
<wgt id='1949'> +8.0974429e+01 </wgt>
<wgt id='1950'> +8.1041409e+01 </wgt>
<wgt id='1951'> +8.0943481e+01 </wgt>
<wgt id='1952'> +8.1001494e+01 </wgt>
<wgt id='1953'> +8.0974666e+01 </wgt>
<wgt id='1954'> +8.0949398e+01 </wgt>
<wgt id='1955'> +8.0949600e+01 </wgt>
<wgt id='1956'> +8.0974499e+01 </wgt>
<wgt id='1957'> +8.0978694e+01 </wgt>
<wgt id='1958'> +8.0975834e+01 </wgt>
<wgt id='1959'> +8.0975945e+01 </wgt>
<wgt id='1960'> +8.0977142e+01 </wgt>
<wgt id='1961'> +8.0975441e+01 </wgt>
<wgt id='1962'> +8.0979438e+01 </wgt>
</rwgt>
</event>
<event npLO=" -1 " npNLO=" 0 ">
 7      0 -1.5146096e+02 3.50400570e+01 7.54677110e-03 1.18748500e-01
       -2 -1    0    0    0  501 +0.0000000000e+00 +0.0000000000e+00 +2.6859273000e+02 2.6859273000e+02 0.0000000000e+00 0.0000e+00 9.0000e+00
       21 -1    0    0  501  502 +0.0000000000e+00 +0.0000000000e+00 -8.3851976000e+00 8.3851976000e+00 0.0000000000e+00 0.0000e+00 9.0000e+00
       23  2    1    2    0    0 +4.1219066000e+00 -5.6570929000e+00 +2.3627600000e+02 2.5204379000e+02 8.7468467000e+01 0.0000e+00 0.0000e+00
       11  1    3    3    0    0 +2.6190503000e+01 -2.8253592000e+01 +2.0049399000e+02 2.0416181000e+02 0.0000000000e+00 0.0000e+00 9.0000e+00
      -11  1    3    3    0    0 -8.6477507000e+00 +1.1387510000e+01 +1.5028794000e+01 2.0744243000e+01 0.0000000000e+00 0.0000e+00 9.0000e+00
       22  1    3    3    0    0 -1.3420846000e+01 +1.1208989000e+01 +2.0753218000e+01 2.7137734000e+01 0.0000000000e+00 0.0000e+00 9.0000e+00
       -2  1    1    2    0  502 -4.1219066000e+00 +5.6570929000e+00 +2.3931532000e+01 2.4934134000e+01 0.0000000000e+00 0.0000e+00 9.0000e+00
#aMCatNLO 2  0  0  2  1 0.11114820E+02 0.00000000E+00 -9  6  0 0.00000000E+00 0.00000000E+00 0.00000000E+00 0.00000000E+00 0.00000000E+00
<rwgt>
<wgt id='1001'> -1.5146000e+02 </wgt>
<wgt id='1002'> -1.5146000e+02 </wgt>
<wgt id='1003'> -1.3410000e+02 </wgt>
<wgt id='1004'> -1.4739000e+02 </wgt>
<wgt id='1005'> -1.4956000e+02 </wgt>
<wgt id='1006'> -1.5132000e+02 </wgt>
<wgt id='1007'> -1.4259000e+02 </wgt>
<wgt id='1008'> -1.4761000e+02 </wgt>
<wgt id='1009'> -1.5856000e+02 </wgt>
<wgt id='1010'> -1.5183000e+02 </wgt>
<wgt id='1011'> -1.5294000e+02 </wgt>
<wgt id='1012'> -1.5645000e+02 </wgt>
<wgt id='1013'> -1.4984000e+02 </wgt>
<wgt id='1014'> -1.5171000e+02 </wgt>
<wgt id='1015'> -1.5665000e+02 </wgt>
<wgt id='1016'> -1.5305000e+02 </wgt>
<wgt id='1017'> -1.5113000e+02 </wgt>
<wgt id='1018'> -1.5238000e+02 </wgt>
<wgt id='1019'> -1.5038000e+02 </wgt>
<wgt id='1020'> -1.4660000e+02 </wgt>
<wgt id='1021'> -1.5153000e+02 </wgt>
<wgt id='1022'> -1.5739000e+02 </wgt>
<wgt id='1023'> -1.5393000e+02 </wgt>
<wgt id='1024'> -1.5503000e+02 </wgt>
<wgt id='1025'> -1.5938000e+02 </wgt>
<wgt id='1026'> -1.5913000e+02 </wgt>
<wgt id='1027'> -1.5315000e+02 </wgt>
<wgt id='1028'> -1.5453000e+02 </wgt>
<wgt id='1029'> -1.5105000e+02 </wgt>
<wgt id='1030'> -1.5174000e+02 </wgt>
<wgt id='1031'> -1.5112000e+02 </wgt>
<wgt id='1032'> -1.5701000e+02 </wgt>
<wgt id='1033'> -1.5778000e+02 </wgt>
<wgt id='1034'> -1.5363000e+02 </wgt>
<wgt id='1035'> -1.5500000e+02 </wgt>
<wgt id='1036'> -1.5215000e+02 </wgt>
<wgt id='1037'> -1.5802000e+02 </wgt>
<wgt id='1038'> -1.5157000e+02 </wgt>
<wgt id='1039'> -1.5513000e+02 </wgt>
<wgt id='1040'> -1.5222000e+02 </wgt>
<wgt id='1041'> -1.4224000e+02 </wgt>
<wgt id='1042'> -1.5387000e+02 </wgt>
<wgt id='1043'> -1.4321000e+02 </wgt>
<wgt id='1044'> -1.5033000e+02 </wgt>
<wgt id='1045'> -1.5634000e+02 </wgt>
<wgt id='1046'> -1.5063000e+02 </wgt>
<wgt id='1047'> -1.5554000e+02 </wgt>
<wgt id='1048'> -1.4470000e+02 </wgt>
<wgt id='1049'> -1.4741000e+02 </wgt>
<wgt id='1050'> -1.5006000e+02 </wgt>
<wgt id='1051'> -1.5501000e+02 </wgt>
<wgt id='1052'> -1.5100000e+02 </wgt>
<wgt id='1053'> -1.5009000e+02 </wgt>
<wgt id='1054'> -1.5250000e+02 </wgt>
<wgt id='1055'> -1.5825000e+02 </wgt>
<wgt id='1056'> -1.5292000e+02 </wgt>
<wgt id='1057'> -1.5335000e+02 </wgt>
<wgt id='1058'> -1.4668000e+02 </wgt>
<wgt id='1059'> -1.4410000e+02 </wgt>
<wgt id='1060'> -1.4960000e+02 </wgt>
<wgt id='1061'> -1.5505000e+02 </wgt>
<wgt id='1062'> -1.5432000e+02 </wgt>
<wgt id='1063'> -1.5012000e+02 </wgt>
<wgt id='1064'> -1.5046000e+02 </wgt>
<wgt id='1065'> -1.4942000e+02 </wgt>
<wgt id='1066'> -1.4327000e+02 </wgt>
<wgt id='1067'> -1.5184000e+02 </wgt>
<wgt id='1068'> -1.5726000e+02 </wgt>
<wgt id='1069'> -1.5534000e+02 </wgt>
<wgt id='1070'> -1.5271000e+02 </wgt>
<wgt id='1071'> -1.5496000e+02 </wgt>
<wgt id='1072'> -1.5554000e+02 </wgt>
<wgt id='1073'> -1.5173000e+02 </wgt>
<wgt id='1074'> -1.5174000e+02 </wgt>
<wgt id='1075'> -1.3696000e+02 </wgt>
<wgt id='1076'> -1.5339000e+02 </wgt>
<wgt id='1077'> -1.4634000e+02 </wgt>
<wgt id='1078'> -1.5453000e+02 </wgt>
<wgt id='1079'> -1.5480000e+02 </wgt>
<wgt id='1080'> -1.5156000e+02 </wgt>
<wgt id='1081'> -1.4913000e+02 </wgt>
<wgt id='1082'> -1.5719000e+02 </wgt>
<wgt id='1083'> -1.5272000e+02 </wgt>
<wgt id='1084'> -1.5419000e+02 </wgt>
<wgt id='1085'> -1.4667000e+02 </wgt>
<wgt id='1086'> -1.4967000e+02 </wgt>
<wgt id='1087'> -1.4893000e+02 </wgt>
<wgt id='1088'> -1.4683000e+02 </wgt>
<wgt id='1089'> -1.4946000e+02 </wgt>
<wgt id='1090'> -1.4788000e+02 </wgt>
<wgt id='1091'> -1.4828000e+02 </wgt>
<wgt id='1092'> -1.5409000e+02 </wgt>
<wgt id='1093'> -1.5050000e+02 </wgt>
<wgt id='1094'> -1.5727000e+02 </wgt>
<wgt id='1095'> -1.4973000e+02 </wgt>
<wgt id='1096'> -1.4754000e+02 </wgt>
<wgt id='1097'> -1.4632000e+02 </wgt>
<wgt id='1098'> -1.5262000e+02 </wgt>
<wgt id='1099'> -1.5358000e+02 </wgt>
<wgt id='1100'> -1.5463000e+02 </wgt>
<wgt id='1101'> -1.4971000e+02 </wgt>
<wgt id='1102'> -1.4690000e+02 </wgt>
<wgt id='1103'> -1.5034000e+02 </wgt>
<wgt id='1104'> -1.5177000e+02 </wgt>
<wgt id='1105'> -1.5146096e+02 </wgt>
<wgt id='1106'> -6.8536630e+01 </wgt>
<wgt id='1107'> -8.4651669e+01 </wgt>
<wgt id='1108'> -8.3661218e+01 </wgt>
<wgt id='1109'> -7.5714005e+01 </wgt>
<wgt id='1110'> -9.3516661e+01 </wgt>
<wgt id='1111'> -6.6507624e+01 </wgt>
<wgt id='1112'> -6.0189879e+01 </wgt>
<wgt id='1113'> -7.4342343e+01 </wgt>
<wgt id='1114'> -7.7848450e+01 </wgt>
<wgt id='1115'> -8.7480840e+01 </wgt>
<wgt id='1116'> -7.8037865e+01 </wgt>
<wgt id='1117'> -8.0424731e+01 </wgt>
<wgt id='1118'> -7.9900730e+01 </wgt>
<wgt id='1119'> -7.4921916e+01 </wgt>
<wgt id='1120'> -7.7230083e+01 </wgt>
<wgt id='1121'> -7.6557659e+01 </wgt>
<wgt id='1122'> -7.6444698e+01 </wgt>
<wgt id='1123'> -7.6790941e+01 </wgt>
<wgt id='1124'> -7.6785272e+01 </wgt>
<wgt id='1125'> -7.8637471e+01 </wgt>
<wgt id='1126'> -7.5854904e+01 </wgt>
<wgt id='1127'> -7.6260814e+01 </wgt>
<wgt id='1128'> -7.8274043e+01 </wgt>
<wgt id='1129'> -7.7630556e+01 </wgt>
<wgt id='1130'> -7.5862723e+01 </wgt>
<wgt id='1131'> -8.0418886e+01 </wgt>
<wgt id='1132'> -7.7636557e+01 </wgt>
<wgt id='1133'> -7.7160489e+01 </wgt>
<wgt id='1134'> -7.3715846e+01 </wgt>
<wgt id='1135'> -7.8377035e+01 </wgt>
<wgt id='1136'> -8.2704368e+01 </wgt>
<wgt id='1137'> -7.9080054e+01 </wgt>
<wgt id='1138'> -7.8324204e+01 </wgt>
<wgt id='1139'> -7.5744856e+01 </wgt>
<wgt id='1140'> -7.8375971e+01 </wgt>
<wgt id='1141'> -8.4501892e+01 </wgt>
<wgt id='1142'> -7.7918211e+01 </wgt>
<wgt id='1143'> -7.6320053e+01 </wgt>
<wgt id='1144'> -7.7974279e+01 </wgt>
<wgt id='1145'> -8.1517061e+01 </wgt>
<wgt id='1146'> -7.7183256e+01 </wgt>
<wgt id='1147'> -7.8287433e+01 </wgt>
<wgt id='1148'> -7.7769824e+01 </wgt>
<wgt id='1149'> -7.8980492e+01 </wgt>
<wgt id='1150'> -7.9778549e+01 </wgt>
<wgt id='1151'> -7.9454584e+01 </wgt>
<wgt id='1152'> -7.5189044e+01 </wgt>
<wgt id='1153'> -7.7515578e+01 </wgt>
<wgt id='1154'> -7.6841471e+01 </wgt>
<wgt id='1155'> -7.8440182e+01 </wgt>
<wgt id='1156'> -7.7698946e+01 </wgt>
<wgt id='1157'> -8.1108696e+01 </wgt>
<wgt id='1158'> -7.8424975e+01 </wgt>
<wgt id='1159'> -7.6228190e+01 </wgt>
<wgt id='1160'> -7.8568498e+01 </wgt>
<wgt id='1161'> -7.8013722e+01 </wgt>
<wgt id='1162'> -7.6027655e+01 </wgt>
<wgt id='1163'> -7.7141205e+01 </wgt>
<wgt id='1164'> -7.8021393e+01 </wgt>
<wgt id='1165'> -7.6107927e+01 </wgt>
<wgt id='1166'> -7.6446931e+01 </wgt>
<wgt id='1167'> -7.6620985e+01 </wgt>
<wgt id='1168'> -8.0199063e+01 </wgt>
<wgt id='1169'> -8.1622509e+01 </wgt>
<wgt id='1170'> -7.9742257e+01 </wgt>
<wgt id='1171'> -8.2133042e+01 </wgt>
<wgt id='1172'> -7.7653994e+01 </wgt>
<wgt id='1173'> -7.5882225e+01 </wgt>
<wgt id='1174'> -8.0457672e+01 </wgt>
<wgt id='1175'> -8.0557594e+01 </wgt>
<wgt id='1176'> -7.6435104e+01 </wgt>
<wgt id='1177'> -7.8237382e+01 </wgt>
<wgt id='1178'> -7.5943679e+01 </wgt>
<wgt id='1179'> -7.7488650e+01 </wgt>
<wgt id='1180'> -7.4197023e+01 </wgt>
<wgt id='1181'> -7.8605253e+01 </wgt>
<wgt id='1182'> -7.7519285e+01 </wgt>
<wgt id='1183'> -7.7431546e+01 </wgt>
<wgt id='1184'> -7.7865597e+01 </wgt>
<wgt id='1185'> -7.6894055e+01 </wgt>
<wgt id='1186'> -7.3115278e+01 </wgt>
<wgt id='1187'> -7.1888844e+01 </wgt>
<wgt id='1188'> -7.4410378e+01 </wgt>
<wgt id='1189'> -7.3904604e+01 </wgt>
<wgt id='1190'> -8.0036401e+01 </wgt>
<wgt id='1191'> -7.9143555e+01 </wgt>
<wgt id='1192'> -7.7091019e+01 </wgt>
<wgt id='1193'> -7.4951453e+01 </wgt>
<wgt id='1194'> -7.8702712e+01 </wgt>
<wgt id='1195'> -8.1134743e+01 </wgt>
<wgt id='1196'> -7.5862723e+01 </wgt>
<wgt id='1197'> -7.5644213e+01 </wgt>
<wgt id='1198'> -7.7524224e+01 </wgt>
<wgt id='1199'> -7.8514777e+01 </wgt>
<wgt id='1200'> -8.1825176e+01 </wgt>
<wgt id='1201'> -7.7406538e+01 </wgt>
<wgt id='1202'> -8.1397102e+01 </wgt>
<wgt id='1203'> -7.1240025e+01 </wgt>
<wgt id='1204'> -7.6257565e+01 </wgt>
<wgt id='1205'> -7.7811054e+01 </wgt>
<wgt id='1206'> -7.1781132e+01 </wgt>
<wgt id='1207'> -7.5835268e+01 </wgt>
<wgt id='1208'> -7.6374891e+01 </wgt>
<wgt id='1209'> -8.0880392e+01 </wgt>
<wgt id='1210'> -7.7486641e+01 </wgt>
<wgt id='1211'> -8.0811170e+01 </wgt>
<wgt id='1212'> -7.9276747e+01 </wgt>
<wgt id='1213'> -7.8742392e+01 </wgt>
<wgt id='1214'> -7.9949153e+01 </wgt>
<wgt id='1215'> -7.4667207e+01 </wgt>
<wgt id='1216'> -8.0100123e+01 </wgt>
<wgt id='1217'> -8.0145961e+01 </wgt>
<wgt id='1218'> -8.0013119e+01 </wgt>
<wgt id='1219'> -7.9956719e+01 </wgt>
<wgt id='1220'> -8.0344904e+01 </wgt>
<wgt id='1221'> -7.9903070e+01 </wgt>
<wgt id='1222'> -8.0005069e+01 </wgt>
<wgt id='1223'> -7.9822115e+01 </wgt>
<wgt id='1224'> -8.0061753e+01 </wgt>
<wgt id='1225'> -7.9756879e+01 </wgt>
<wgt id='1226'> -7.9717187e+01 </wgt>
<wgt id='1227'> -8.0252957e+01 </wgt>
<wgt id='1228'> -8.0258039e+01 </wgt>
<wgt id='1229'> -8.0139142e+01 </wgt>
<wgt id='1230'> -8.0361996e+01 </wgt>
<wgt id='1231'> -7.9863823e+01 </wgt>
<wgt id='1232'> -8.0295293e+01 </wgt>
<wgt id='1233'> -7.9911198e+01 </wgt>
<wgt id='1234'> -8.0195111e+01 </wgt>
<wgt id='1235'> -8.0073149e+01 </wgt>
<wgt id='1236'> -7.9980148e+01 </wgt>
<wgt id='1237'> -8.0304549e+01 </wgt>
<wgt id='1238'> -8.0098952e+01 </wgt>
<wgt id='1239'> -8.0090197e+01 </wgt>
<wgt id='1240'> -8.0226242e+01 </wgt>
<wgt id='1241'> -7.9925175e+01 </wgt>
<wgt id='1242'> -7.9993488e+01 </wgt>
<wgt id='1243'> -8.0370527e+01 </wgt>
<wgt id='1244'> -8.0218321e+01 </wgt>
<wgt id='1245'> -8.0118855e+01 </wgt>
<wgt id='1246'> -7.9812098e+01 </wgt>
<wgt id='1247'> -8.0640378e+01 </wgt>
<wgt id='1248'> -7.9516141e+01 </wgt>
<wgt id='1249'> -8.0351909e+01 </wgt>
<wgt id='1250'> -7.9985226e+01 </wgt>
<wgt id='1251'> -7.9700231e+01 </wgt>
<wgt id='1252'> -7.9492565e+01 </wgt>
<wgt id='1253'> -7.9779001e+01 </wgt>
<wgt id='1254'> -7.9678084e+01 </wgt>
<wgt id='1255'> -7.9922788e+01 </wgt>
<wgt id='1256'> -7.9946355e+01 </wgt>
<wgt id='1257'> -7.9677154e+01 </wgt>
<wgt id='1258'> -7.9880818e+01 </wgt>
<wgt id='1259'> -8.0352537e+01 </wgt>
<wgt id='1260'> -7.9720013e+01 </wgt>
<wgt id='1261'> -7.9937711e+01 </wgt>
<wgt id='1262'> -7.9913893e+01 </wgt>
<wgt id='1263'> -8.0222528e+01 </wgt>
<wgt id='1264'> -8.0186250e+01 </wgt>
<wgt id='1265'> -8.0042592e+01 </wgt>
<wgt id='1266'> -8.0410882e+01 </wgt>
<wgt id='1267'> -8.0524716e+01 </wgt>
<wgt id='1268'> -8.0121492e+01 </wgt>
<wgt id='1269'> -7.9994326e+01 </wgt>
<wgt id='1270'> -8.0263031e+01 </wgt>
<wgt id='1271'> -8.0020665e+01 </wgt>
<wgt id='1272'> -8.0178433e+01 </wgt>
<wgt id='1273'> -7.9852080e+01 </wgt>
<wgt id='1274'> -7.9918197e+01 </wgt>
<wgt id='1275'> -8.0332298e+01 </wgt>
<wgt id='1276'> -8.0315561e+01 </wgt>
<wgt id='1277'> -8.0098253e+01 </wgt>
<wgt id='1278'> -8.0074435e+01 </wgt>
<wgt id='1279'> -8.0261373e+01 </wgt>
<wgt id='1280'> -8.0005000e+01 </wgt>
<wgt id='1281'> -8.0055932e+01 </wgt>
<wgt id='1282'> -8.0210926e+01 </wgt>
<wgt id='1283'> -8.0081891e+01 </wgt>
<wgt id='1284'> -8.0032589e+01 </wgt>
<wgt id='1285'> -8.0085369e+01 </wgt>
<wgt id='1286'> -7.9763768e+01 </wgt>
<wgt id='1287'> -8.0021469e+01 </wgt>
<wgt id='1288'> -8.0098323e+01 </wgt>
<wgt id='1289'> -7.9940827e+01 </wgt>
<wgt id='1290'> -8.0183431e+01 </wgt>
<wgt id='1291'> -8.0049465e+01 </wgt>
<wgt id='1292'> -8.0059831e+01 </wgt>
<wgt id='1293'> -8.0144066e+01 </wgt>
<wgt id='1294'> -8.0173134e+01 </wgt>
<wgt id='1295'> -8.0138474e+01 </wgt>
<wgt id='1296'> -8.0126890e+01 </wgt>
<wgt id='1297'> -8.0110429e+01 </wgt>
<wgt id='1298'> -7.9998241e+01 </wgt>
<wgt id='1299'> -8.0237080e+01 </wgt>
<wgt id='1300'> -8.0027661e+01 </wgt>
<wgt id='1301'> -8.0037889e+01 </wgt>
<wgt id='1302'> -8.0135680e+01 </wgt>
<wgt id='1303'> -8.0111195e+01 </wgt>
<wgt id='1304'> -7.9990842e+01 </wgt>
<wgt id='1305'> -7.9756030e+01 </wgt>
<wgt id='1306'> -8.0194843e+01 </wgt>
<wgt id='1307'> -8.0135720e+01 </wgt>
<wgt id='1308'> -8.0009650e+01 </wgt>
<wgt id='1309'> -8.0251471e+01 </wgt>
<wgt id='1310'> -8.0132501e+01 </wgt>
<wgt id='1311'> -8.0224704e+01 </wgt>
<wgt id='1312'> -8.0119819e+01 </wgt>
<wgt id='1313'> -8.0123411e+01 </wgt>
<wgt id='1314'> -8.0043620e+01 </wgt>
<wgt id='1315'> -8.0190483e+01 </wgt>
<wgt id='1316'> -8.0003842e+01 </wgt>
<wgt id='1317'> -8.0024218e+01 </wgt>
<wgt id='1318'> -8.0497369e+01 </wgt>
<wgt id='1319'> -1.0702266e+02 </wgt>
<wgt id='1320'> -7.7072083e+01 </wgt>
<wgt id='1321'> -7.7612157e+01 </wgt>
<wgt id='1322'> -7.7193526e+01 </wgt>
<wgt id='1323'> -7.6432822e+01 </wgt>
<wgt id='1324'> -7.7668032e+01 </wgt>
<wgt id='1325'> -7.8262016e+01 </wgt>
<wgt id='1326'> -7.6534284e+01 </wgt>
<wgt id='1327'> -7.7522754e+01 </wgt>
<wgt id='1328'> -7.7004827e+01 </wgt>
<wgt id='1329'> -7.5805093e+01 </wgt>
<wgt id='1330'> -7.7912477e+01 </wgt>
<wgt id='1331'> -7.4990326e+01 </wgt>
<wgt id='1332'> -7.8810411e+01 </wgt>
<wgt id='1333'> -7.5249608e+01 </wgt>
<wgt id='1334'> -7.7481887e+01 </wgt>
<wgt id='1335'> -7.8913739e+01 </wgt>
<wgt id='1336'> -7.4721564e+01 </wgt>
<wgt id='1337'> -7.8933355e+01 </wgt>
<wgt id='1338'> -7.4962183e+01 </wgt>
<wgt id='1339'> -7.7217217e+01 </wgt>
<wgt id='1340'> -7.6805240e+01 </wgt>
<wgt id='1341'> -7.6970477e+01 </wgt>
<wgt id='1342'> -7.7074082e+01 </wgt>
<wgt id='1343'> -7.6893690e+01 </wgt>
<wgt id='1344'> -7.7095455e+01 </wgt>
<wgt id='1345'> -7.4751056e+01 </wgt>
<wgt id='1346'> -7.9143145e+01 </wgt>
<wgt id='1347'> -7.6716481e+01 </wgt>
<wgt id='1348'> -7.7490684e+01 </wgt>
<wgt id='1349'> -7.5897975e+01 </wgt>
<wgt id='1350'> -7.7474657e+01 </wgt>
<wgt id='1351'> -7.6166552e+01 </wgt>
<wgt id='1352'> -7.8224862e+01 </wgt>
<wgt id='1353'> -7.7239038e+01 </wgt>
<wgt id='1354'> -7.6711700e+01 </wgt>
<wgt id='1355'> -7.7577099e+01 </wgt>
<wgt id='1356'> -7.6686505e+01 </wgt>
<wgt id='1357'> -7.6982492e+01 </wgt>
<wgt id='1358'> -7.6677568e+01 </wgt>
<wgt id='1359'> -7.5587951e+01 </wgt>
<wgt id='1360'> -7.7556865e+01 </wgt>
<wgt id='1361'> -7.6630267e+01 </wgt>
<wgt id='1362'> -7.7770709e+01 </wgt>
<wgt id='1363'> -7.7145558e+01 </wgt>
<wgt id='1364'> -7.6450118e+01 </wgt>
<wgt id='1365'> -7.6428541e+01 </wgt>
<wgt id='1366'> -7.5477224e+01 </wgt>
<wgt id='1367'> -7.5439169e+01 </wgt>
<wgt id='1368'> -7.7281628e+01 </wgt>
<wgt id='1369'> -7.5883982e+01 </wgt>
<wgt id='1370'> -7.7305089e+01 </wgt>
<wgt id='1371'> -7.6228124e+01 </wgt>
<wgt id='1372'> -7.5610162e+01 </wgt>
<wgt id='1373'> -7.5911458e+01 </wgt>
<wgt id='1374'> -7.6000734e+01 </wgt>
<wgt id='1375'> -7.6993840e+01 </wgt>
<wgt id='1376'> -7.7923120e+01 </wgt>
<wgt id='1377'> -7.6175759e+01 </wgt>
<wgt id='1378'> -7.7857128e+01 </wgt>
<wgt id='1379'> -7.4232780e+01 </wgt>
<wgt id='1380'> -7.3611741e+01 </wgt>
<wgt id='1381'> -7.4848913e+01 </wgt>
<wgt id='1382'> -8.4196528e+01 </wgt>
<wgt id='1383'> -7.7391462e+01 </wgt>
<wgt id='1384'> -7.6060583e+01 </wgt>
<wgt id='1385'> -9.6961449e+01 </wgt>
<wgt id='1386'> -9.7562073e+01 </wgt>
<wgt id='1387'> -9.6293808e+01 </wgt>
<wgt id='1388'> -9.7088220e+01 </wgt>
<wgt id='1389'> -9.6725199e+01 </wgt>
<wgt id='1390'> -9.7468387e+01 </wgt>
<wgt id='1391'> -9.6361514e+01 </wgt>
<wgt id='1392'> -9.7513758e+01 </wgt>
<wgt id='1393'> -9.6577695e+01 </wgt>
<wgt id='1394'> -9.6815793e+01 </wgt>
<wgt id='1395'> -9.7134356e+01 </wgt>
<wgt id='1396'> -9.6296550e+01 </wgt>
<wgt id='1397'> -9.7306420e+01 </wgt>
<wgt id='1398'> -9.6632945e+01 </wgt>
<wgt id='1399'> -9.7204789e+01 </wgt>
<wgt id='1400'> -9.7656483e+01 </wgt>
<wgt id='1401'> -9.6422280e+01 </wgt>
<wgt id='1402'> -9.7370942e+01 </wgt>
<wgt id='1403'> -9.6775227e+01 </wgt>
<wgt id='1404'> -9.8006237e+01 </wgt>
<wgt id='1405'> -9.6452701e+01 </wgt>
<wgt id='1406'> -9.7028845e+01 </wgt>
<wgt id='1407'> -9.6835231e+01 </wgt>
<wgt id='1408'> -9.6330358e+01 </wgt>
<wgt id='1409'> -9.8230959e+01 </wgt>
<wgt id='1410'> -9.7442679e+01 </wgt>
<wgt id='1411'> -9.5695831e+01 </wgt>
<wgt id='1412'> -9.7406729e+01 </wgt>
<wgt id='1413'> -9.6264904e+01 </wgt>
<wgt id='1414'> -9.6471175e+01 </wgt>
<wgt id='1415'> -9.7348120e+01 </wgt>
<wgt id='1416'> -9.7034705e+01 </wgt>
<wgt id='1417'> -9.7135863e+01 </wgt>
<wgt id='1418'> -9.7250821e+01 </wgt>
<wgt id='1419'> -9.6344750e+01 </wgt>
<wgt id='1420'> -9.6666494e+01 </wgt>
<wgt id='1421'> -9.6768410e+01 </wgt>
<wgt id='1422'> -9.6875686e+01 </wgt>
<wgt id='1423'> -9.7138364e+01 </wgt>
<wgt id='1424'> -9.7345989e+01 </wgt>
<wgt id='1425'> -9.6062189e+01 </wgt>
<wgt id='1426'> -9.7839307e+01 </wgt>
<wgt id='1427'> -9.6744979e+01 </wgt>
<wgt id='1428'> -9.6721016e+01 </wgt>
<wgt id='1429'> -9.5825819e+01 </wgt>
<wgt id='1430'> -9.7743038e+01 </wgt>
<wgt id='1431'> -9.7064332e+01 </wgt>
<wgt id='1432'> -9.7351615e+01 </wgt>
<wgt id='1433'> -9.7571861e+01 </wgt>
<wgt id='1434'> -9.7292460e+01 </wgt>
<wgt id='1435'> -9.7609627e+01 </wgt>
<wgt id='1436'> -7.6362161e+01 </wgt>
<wgt id='1437'> -7.6430149e+01 </wgt>
<wgt id='1438'> -7.6098970e+01 </wgt>
<wgt id='1439'> -7.6363427e+01 </wgt>
<wgt id='1440'> -7.6374199e+01 </wgt>
<wgt id='1441'> -7.6672011e+01 </wgt>
<wgt id='1442'> -7.6228555e+01 </wgt>
<wgt id='1443'> -7.6626159e+01 </wgt>
<wgt id='1444'> -7.6142190e+01 </wgt>
<wgt id='1445'> -7.6162329e+01 </wgt>
<wgt id='1446'> -7.6583516e+01 </wgt>
<wgt id='1447'> -7.6428201e+01 </wgt>
<wgt id='1448'> -7.6314637e+01 </wgt>
<wgt id='1449'> -7.6822663e+01 </wgt>
<wgt id='1450'> -7.6471712e+01 </wgt>
<wgt id='1451'> -7.6365693e+01 </wgt>
<wgt id='1452'> -7.6331638e+01 </wgt>
<wgt id='1453'> -7.6265126e+01 </wgt>
<wgt id='1454'> -7.6436685e+01 </wgt>
<wgt id='1455'> -7.6404250e+01 </wgt>
<wgt id='1456'> -7.6398661e+01 </wgt>
<wgt id='1457'> -7.6304280e+01 </wgt>
<wgt id='1458'> -7.6177689e+01 </wgt>
<wgt id='1459'> -7.6545840e+01 </wgt>
<wgt id='1460'> -7.6485662e+01 </wgt>
<wgt id='1461'> -7.6009865e+01 </wgt>
<wgt id='1462'> -7.6777040e+01 </wgt>
<wgt id='1463'> -7.5532539e+01 </wgt>
<wgt id='1464'> -7.6591903e+01 </wgt>
<wgt id='1465'> -7.5711319e+01 </wgt>
<wgt id='1466'> -7.6774641e+01 </wgt>
<wgt id='1467'> -7.6760811e+01 </wgt>
<wgt id='1468'> -7.6398169e+01 </wgt>
<wgt id='1469'> -7.7319972e+01 </wgt>
<wgt id='1470'> -7.6796498e+01 </wgt>
<wgt id='1471'> -7.6956253e+01 </wgt>
<wgt id='1472'> -7.6247393e+01 </wgt>
<wgt id='1473'> -7.7670731e+01 </wgt>
<wgt id='1474'> -7.7730020e+01 </wgt>
<wgt id='1475'> -7.6582365e+01 </wgt>
<wgt id='1476'> -7.7294120e+01 </wgt>
<wgt id='1477'> -7.6362541e+01 </wgt>
<wgt id='1478'> -7.6708505e+01 </wgt>
<wgt id='1479'> -7.6435171e+01 </wgt>
<wgt id='1480'> -7.6643920e+01 </wgt>
<wgt id='1481'> -7.6783725e+01 </wgt>
<wgt id='1482'> -7.6368743e+01 </wgt>
<wgt id='1483'> -7.7227252e+01 </wgt>
<wgt id='1484'> -7.7378885e+01 </wgt>
<wgt id='1485'> -7.6408593e+01 </wgt>
<wgt id='1486'> -7.6989108e+01 </wgt>
<wgt id='1487'> -7.6637545e+01 </wgt>
<wgt id='1488'> -7.6780634e+01 </wgt>
<wgt id='1489'> -7.7279284e+01 </wgt>
<wgt id='1490'> -7.6557785e+01 </wgt>
<wgt id='1491'> -7.6112706e+01 </wgt>
<wgt id='1492'> -7.6529250e+01 </wgt>
<wgt id='1493'> -7.7298276e+01 </wgt>
<wgt id='1494'> -7.6158053e+01 </wgt>
<wgt id='1495'> -7.6811993e+01 </wgt>
<wgt id='1496'> -7.7383548e+01 </wgt>
<wgt id='1497'> -7.6602015e+01 </wgt>
<wgt id='1498'> -7.7044448e+01 </wgt>
<wgt id='1499'> -7.7157103e+01 </wgt>
<wgt id='1500'> -7.7050360e+01 </wgt>
<wgt id='1501'> -7.7176651e+01 </wgt>
<wgt id='1502'> -7.6594287e+01 </wgt>
<wgt id='1503'> -7.6904119e+01 </wgt>
<wgt id='1504'> -7.6783750e+01 </wgt>
<wgt id='1505'> -7.6990383e+01 </wgt>
<wgt id='1506'> -7.6915960e+01 </wgt>
<wgt id='1507'> -7.6955054e+01 </wgt>
<wgt id='1508'> -7.6982970e+01 </wgt>
<wgt id='1509'> -7.6608389e+01 </wgt>
<wgt id='1510'> -7.6856266e+01 </wgt>
<wgt id='1511'> -7.7089143e+01 </wgt>
<wgt id='1512'> -7.6922465e+01 </wgt>
<wgt id='1513'> -7.6528331e+01 </wgt>
<wgt id='1514'> -7.6514596e+01 </wgt>
<wgt id='1515'> -7.6744141e+01 </wgt>
<wgt id='1516'> -7.6851239e+01 </wgt>
<wgt id='1517'> -7.6665269e+01 </wgt>
<wgt id='1518'> -7.7205574e+01 </wgt>
<wgt id='1519'> -7.6705713e+01 </wgt>
<wgt id='1520'> -7.6800055e+01 </wgt>
<wgt id='1521'> -7.6892679e+01 </wgt>
<wgt id='1522'> -7.6756152e+01 </wgt>
<wgt id='1523'> -7.6634736e+01 </wgt>
<wgt id='1524'> -7.6829215e+01 </wgt>
<wgt id='1525'> -7.6489072e+01 </wgt>
<wgt id='1526'> -7.6664998e+01 </wgt>
<wgt id='1527'> -7.7054475e+01 </wgt>
<wgt id='1528'> -7.6471833e+01 </wgt>
<wgt id='1529'> -7.6596265e+01 </wgt>
<wgt id='1530'> -7.6861254e+01 </wgt>
<wgt id='1531'> -7.6748601e+01 </wgt>
<wgt id='1532'> -7.6554385e+01 </wgt>
<wgt id='1533'> -7.6849406e+01 </wgt>
<wgt id='1534'> -7.6904140e+01 </wgt>
<wgt id='1535'> -7.6842575e+01 </wgt>
<wgt id='1536'> -7.6621143e+01 </wgt>
<wgt id='1537'> -7.6865549e+01 </wgt>
<wgt id='1538'> -7.6868219e+01 </wgt>
<wgt id='1539'> -7.6750659e+01 </wgt>
<wgt id='1540'> -7.6819457e+01 </wgt>
<wgt id='1541'> -7.6684934e+01 </wgt>
<wgt id='1542'> -7.6846103e+01 </wgt>
<wgt id='1543'> -7.6642366e+01 </wgt>
<wgt id='1544'> -7.6800234e+01 </wgt>
<wgt id='1545'> -7.6881574e+01 </wgt>
<wgt id='1546'> -7.6836859e+01 </wgt>
<wgt id='1547'> -7.6685081e+01 </wgt>
<wgt id='1548'> -7.6674262e+01 </wgt>
<wgt id='1549'> -7.6710583e+01 </wgt>
<wgt id='1550'> -7.6753310e+01 </wgt>
<wgt id='1551'> -7.6907588e+01 </wgt>
<wgt id='1552'> -7.6756936e+01 </wgt>
<wgt id='1553'> -7.6751638e+01 </wgt>
<wgt id='1554'> -7.6769367e+01 </wgt>
<wgt id='1555'> -7.6795052e+01 </wgt>
<wgt id='1556'> -7.6735421e+01 </wgt>
<wgt id='1557'> -7.6813360e+01 </wgt>
<wgt id='1558'> -7.6757187e+01 </wgt>
<wgt id='1559'> -7.6759056e+01 </wgt>
<wgt id='1560'> -7.6758833e+01 </wgt>
<wgt id='1561'> -7.6736926e+01 </wgt>
<wgt id='1562'> -7.6785783e+01 </wgt>
<wgt id='1563'> -7.6783207e+01 </wgt>
<wgt id='1564'> -7.6841388e+01 </wgt>
<wgt id='1565'> -7.6817568e+01 </wgt>
<wgt id='1566'> -7.6739693e+01 </wgt>
<wgt id='1567'> -7.5966771e+01 </wgt>
<wgt id='1568'> -7.7330555e+01 </wgt>
<wgt id='1569'> -7.5077901e+01 </wgt>
<wgt id='1570'> -7.5329904e+01 </wgt>
<wgt id='1571'> -7.5003098e+01 </wgt>
<wgt id='1572'> -7.5265969e+01 </wgt>
<wgt id='1573'> -7.5394963e+01 </wgt>
<wgt id='1574'> -7.5084202e+01 </wgt>
<wgt id='1575'> -7.5302339e+01 </wgt>
<wgt id='1576'> -7.5656843e+01 </wgt>
<wgt id='1577'> -7.5413348e+01 </wgt>
<wgt id='1578'> -7.5021776e+01 </wgt>
<wgt id='1579'> -7.4978297e+01 </wgt>
<wgt id='1580'> -7.5483812e+01 </wgt>
<wgt id='1581'> -7.4476826e+01 </wgt>
<wgt id='1582'> -7.4868648e+01 </wgt>
<wgt id='1583'> -7.4857521e+01 </wgt>
<wgt id='1584'> -7.5820157e+01 </wgt>
<wgt id='1585'> -7.4773426e+01 </wgt>
<wgt id='1586'> -7.5061155e+01 </wgt>
<wgt id='1587'> -7.5635334e+01 </wgt>
<wgt id='1588'> -7.4187544e+01 </wgt>
<wgt id='1589'> -7.4879019e+01 </wgt>
<wgt id='1590'> -7.5230557e+01 </wgt>
<wgt id='1591'> -7.4332463e+01 </wgt>
<wgt id='1592'> -7.5010595e+01 </wgt>
<wgt id='1593'> -7.5400725e+01 </wgt>
<wgt id='1594'> -7.5113765e+01 </wgt>
<wgt id='1595'> -7.4899305e+01 </wgt>
<wgt id='1596'> -7.4953903e+01 </wgt>
<wgt id='1597'> -7.4991635e+01 </wgt>
<wgt id='1598'> -7.4955441e+01 </wgt>
<wgt id='1599'> -7.5016962e+01 </wgt>
<wgt id='1600'> -7.4523964e+01 </wgt>
<wgt id='1601'> -7.4994304e+01 </wgt>
<wgt id='1602'> -7.4564898e+01 </wgt>
<wgt id='1603'> -7.4725899e+01 </wgt>
<wgt id='1604'> -7.5350350e+01 </wgt>
<wgt id='1605'> -7.5382209e+01 </wgt>
<wgt id='1606'> -7.5053559e+01 </wgt>
<wgt id='1607'> -7.5052571e+01 </wgt>
<wgt id='1608'> -7.5329545e+01 </wgt>
<wgt id='1609'> -7.4757237e+01 </wgt>
<wgt id='1610'> -7.5011153e+01 </wgt>
<wgt id='1611'> -7.4891361e+01 </wgt>
<wgt id='1612'> -7.5039335e+01 </wgt>
<wgt id='1613'> -7.4940381e+01 </wgt>
<wgt id='1614'> -7.5084415e+01 </wgt>
<wgt id='1615'> -7.4702717e+01 </wgt>
<wgt id='1616'> -7.4303235e+01 </wgt>
<wgt id='1617'> -7.4921492e+01 </wgt>
<wgt id='1618'> -7.5037457e+01 </wgt>
<wgt id='1619'> -7.5083332e+01 </wgt>
<wgt id='1620'> -7.4944611e+01 </wgt>
<wgt id='1621'> -7.5044398e+01 </wgt>
<wgt id='1622'> -7.5196828e+01 </wgt>
<wgt id='1623'> -7.4899071e+01 </wgt>
<wgt id='1624'> -7.5147310e+01 </wgt>
<wgt id='1625'> -7.5452004e+01 </wgt>
<wgt id='1626'> -7.4986900e+01 </wgt>
<wgt id='1627'> -7.4947067e+01 </wgt>
<wgt id='1628'> -7.4960442e+01 </wgt>
<wgt id='1629'> -7.5148178e+01 </wgt>
<wgt id='1630'> -7.5060829e+01 </wgt>
<wgt id='1631'> -7.5053183e+01 </wgt>
<wgt id='1632'> -7.5066038e+01 </wgt>
<wgt id='1633'> -7.4897673e+01 </wgt>
<wgt id='1634'> -7.5485183e+01 </wgt>
<wgt id='1635'> -7.4911357e+01 </wgt>
<wgt id='1636'> -7.5175865e+01 </wgt>
<wgt id='1637'> -7.5222774e+01 </wgt>
<wgt id='1638'> -7.5162387e+01 </wgt>
<wgt id='1639'> -7.5023605e+01 </wgt>
<wgt id='1640'> -7.5077734e+01 </wgt>
<wgt id='1641'> -7.5192931e+01 </wgt>
<wgt id='1642'> -7.5069465e+01 </wgt>
<wgt id='1643'> -7.5161784e+01 </wgt>
<wgt id='1644'> -7.5020121e+01 </wgt>
<wgt id='1645'> -7.5040708e+01 </wgt>
<wgt id='1646'> -7.5212323e+01 </wgt>
<wgt id='1647'> -7.4980572e+01 </wgt>
<wgt id='1648'> -7.4900340e+01 </wgt>
<wgt id='1649'> -7.5119018e+01 </wgt>
<wgt id='1650'> -7.5131253e+01 </wgt>
<wgt id='1651'> -7.5090034e+01 </wgt>
<wgt id='1652'> -7.5173363e+01 </wgt>
<wgt id='1653'> -7.5051628e+01 </wgt>
<wgt id='1654'> -7.5053875e+01 </wgt>
<wgt id='1655'> -7.5094005e+01 </wgt>
<wgt id='1656'> -7.5018696e+01 </wgt>
<wgt id='1657'> -7.5104913e+01 </wgt>
<wgt id='1658'> -7.5067573e+01 </wgt>
<wgt id='1659'> -7.5065674e+01 </wgt>
<wgt id='1660'> -7.5061241e+01 </wgt>
<wgt id='1661'> -7.5074627e+01 </wgt>
<wgt id='1662'> -7.5064512e+01 </wgt>
<wgt id='1663'> -7.5077353e+01 </wgt>
<wgt id='1664'> -7.5104106e+01 </wgt>
<wgt id='1665'> -7.5050637e+01 </wgt>
<wgt id='1666'> -7.5084528e+01 </wgt>
<wgt id='1667'> -7.5083386e+01 </wgt>
<wgt id='1668'> -7.5034859e+01 </wgt>
<wgt id='1669'> -7.5069916e+01 </wgt>
<wgt id='1670'> -7.4789066e+01 </wgt>
<wgt id='1671'> -7.5467082e+01 </wgt>
<wgt id='1672'> -7.6775143e+01 </wgt>
<wgt id='1673'> -7.7588664e+01 </wgt>
<wgt id='1674'> -7.5900394e+01 </wgt>
<wgt id='1675'> -7.6718226e+01 </wgt>
<wgt id='1676'> -7.7731281e+01 </wgt>
<wgt id='1677'> -7.7241864e+01 </wgt>
<wgt id='1678'> -7.7408440e+01 </wgt>
<wgt id='1679'> -7.6809489e+01 </wgt>
<wgt id='1680'> -7.6742120e+01 </wgt>
<wgt id='1681'> -7.6921064e+01 </wgt>
<wgt id='1682'> -7.6769879e+01 </wgt>
<wgt id='1683'> -7.6839430e+01 </wgt>
<wgt id='1684'> -7.6393277e+01 </wgt>
<wgt id='1685'> -7.6613630e+01 </wgt>
<wgt id='1686'> -7.6344134e+01 </wgt>
<wgt id='1687'> -7.6763453e+01 </wgt>
<wgt id='1688'> -7.6992215e+01 </wgt>
<wgt id='1689'> -7.5603056e+01 </wgt>
<wgt id='1690'> -7.6592040e+01 </wgt>
<wgt id='1691'> -7.6719008e+01 </wgt>
<wgt id='1692'> -7.7664092e+01 </wgt>
<wgt id='1693'> -7.6720092e+01 </wgt>
<wgt id='1694'> -7.6842711e+01 </wgt>
<wgt id='1695'> -7.6790376e+01 </wgt>
<wgt id='1696'> -7.7010918e+01 </wgt>
<wgt id='1697'> -7.6619445e+01 </wgt>
<wgt id='1698'> -7.6743121e+01 </wgt>
<wgt id='1699'> -7.5597870e+01 </wgt>
<wgt id='1700'> -7.6994606e+01 </wgt>
<wgt id='1701'> -7.6830836e+01 </wgt>
<wgt id='1702'> -7.6784592e+01 </wgt>
<wgt id='1703'> -7.5966771e+01 </wgt>
<wgt id='1704'> -7.7330555e+01 </wgt>
<wgt id='1705'> -7.5077264e+01 </wgt>
<wgt id='1706'> -7.5679922e+01 </wgt>
<wgt id='1707'> -7.5831437e+01 </wgt>
<wgt id='1708'> -7.5056294e+01 </wgt>
<wgt id='1709'> -7.4577971e+01 </wgt>
<wgt id='1710'> -7.4683342e+01 </wgt>
<wgt id='1711'> -7.5117792e+01 </wgt>
<wgt id='1712'> -7.4943355e+01 </wgt>
<wgt id='1713'> -7.5165913e+01 </wgt>
<wgt id='1714'> -7.4284513e+01 </wgt>
<wgt id='1715'> -7.5908319e+01 </wgt>
<wgt id='1716'> -7.5939933e+01 </wgt>
<wgt id='1717'> -7.5194684e+01 </wgt>
<wgt id='1718'> -7.5290354e+01 </wgt>
<wgt id='1719'> -7.4916971e+01 </wgt>
<wgt id='1720'> -7.5496063e+01 </wgt>
<wgt id='1721'> -7.5155417e+01 </wgt>
<wgt id='1722'> -7.5155802e+01 </wgt>
<wgt id='1723'> -7.5121104e+01 </wgt>
<wgt id='1724'> -7.5332369e+01 </wgt>
<wgt id='1725'> -7.4848591e+01 </wgt>
<wgt id='1726'> -7.4748756e+01 </wgt>
<wgt id='1727'> -7.5326587e+01 </wgt>
<wgt id='1728'> -7.5085154e+01 </wgt>
<wgt id='1729'> -7.4799769e+01 </wgt>
<wgt id='1730'> -7.5116318e+01 </wgt>
<wgt id='1731'> -7.3674395e+01 </wgt>
<wgt id='1732'> -7.5079412e+01 </wgt>
<wgt id='1733'> -7.5143648e+01 </wgt>
<wgt id='1734'> -7.4997824e+01 </wgt>
<wgt id='1735'> -7.5268064e+01 </wgt>
<wgt id='1736'> -7.4789066e+01 </wgt>
<wgt id='1737'> -7.5467082e+01 </wgt>
<wgt id='1738'> -8.9608785e+01 </wgt>
<wgt id='1739'> -8.9764785e+01 </wgt>
<wgt id='1740'> -8.9453162e+01 </wgt>
<wgt id='1741'> -8.9550382e+01 </wgt>
<wgt id='1742'> -8.9666040e+01 </wgt>
<wgt id='1743'> -8.9764862e+01 </wgt>
<wgt id='1744'> -8.9452741e+01 </wgt>
<wgt id='1745'> -8.9077827e+01 </wgt>
<wgt id='1746'> -9.0130701e+01 </wgt>
<wgt id='1747'> -9.0111822e+01 </wgt>
<wgt id='1748'> -8.9107230e+01 </wgt>
<wgt id='1749'> -8.9886599e+01 </wgt>
<wgt id='1750'> -8.9305298e+01 </wgt>
<wgt id='1751'> -8.9660336e+01 </wgt>
<wgt id='1752'> -8.9553502e+01 </wgt>
<wgt id='1753'> -8.9510908e+01 </wgt>
<wgt id='1754'> -8.9751025e+01 </wgt>
<wgt id='1755'> -8.9769904e+01 </wgt>
<wgt id='1756'> -8.9343688e+01 </wgt>
<wgt id='1757'> -8.9341267e+01 </wgt>
<wgt id='1758'> -8.9902380e+01 </wgt>
<wgt id='1759'> -9.0683461e+01 </wgt>
<wgt id='1760'> -8.8449334e+01 </wgt>
<wgt id='1761'> -8.9124927e+01 </wgt>
<wgt id='1762'> -8.9683525e+01 </wgt>
<wgt id='1763'> -8.9016041e+01 </wgt>
<wgt id='1764'> -9.0330808e+01 </wgt>
<wgt id='1765'> -8.8144789e+01 </wgt>
<wgt id='1766'> -9.0777057e+01 </wgt>
<wgt id='1767'> -8.9608785e+01 </wgt>
<wgt id='1768'> -9.0165607e+01 </wgt>
<wgt id='1769'> -8.8984953e+01 </wgt>
<wgt id='1770'> -9.0246942e+01 </wgt>
<wgt id='1771'> -8.9178626e+01 </wgt>
<wgt id='1772'> -8.9637393e+01 </wgt>
<wgt id='1773'> -8.8977866e+01 </wgt>
<wgt id='1774'> -8.9279115e+01 </wgt>
<wgt id='1775'> -8.9931288e+01 </wgt>
<wgt id='1776'> -8.8539784e+01 </wgt>
<wgt id='1777'> -9.0712837e+01 </wgt>
<wgt id='1778'> -8.9961612e+01 </wgt>
<wgt id='1779'> -9.0425207e+01 </wgt>
<wgt id='1780'> -9.5977520e+01 </wgt>
<wgt id='1781'> -8.1563029e+01 </wgt>
<wgt id='1782'> -8.1711163e+01 </wgt>
<wgt id='1783'> -8.1452763e+01 </wgt>
<wgt id='1784'> -8.1515817e+01 </wgt>
<wgt id='1785'> -8.1647030e+01 </wgt>
<wgt id='1786'> -8.1721351e+01 </wgt>
<wgt id='1787'> -8.1442403e+01 </wgt>
<wgt id='1788'> -8.1056804e+01 </wgt>
<wgt id='1789'> -8.2094044e+01 </wgt>
<wgt id='1790'> -8.1958443e+01 </wgt>
<wgt id='1791'> -8.1200868e+01 </wgt>
<wgt id='1792'> -8.1662291e+01 </wgt>
<wgt id='1793'> -8.1501468e+01 </wgt>
<wgt id='1794'> -8.1416833e+01 </wgt>
<wgt id='1795'> -8.1750880e+01 </wgt>
<wgt id='1796'> -8.1567017e+01 </wgt>
<wgt id='1797'> -8.1691960e+01 </wgt>
<wgt id='1798'> -8.1228762e+01 </wgt>
<wgt id='1799'> -8.1919857e+01 </wgt>
<wgt id='1800'> -8.1877722e+01 </wgt>
<wgt id='1801'> -8.1281947e+01 </wgt>
<wgt id='1802'> -8.0242878e+01 </wgt>
<wgt id='1803'> -8.2828336e+01 </wgt>
<wgt id='1804'> -8.0612691e+01 </wgt>
<wgt id='1805'> -8.2559869e+01 </wgt>
<wgt id='1806'> -8.1423201e+01 </wgt>
<wgt id='1807'> -8.1460634e+01 </wgt>
<wgt id='1808'> -8.1063341e+01 </wgt>
<wgt id='1809'> -8.1830259e+01 </wgt>
<wgt id='1810'> -8.1562070e+01 </wgt>
<wgt id='1811'> -8.2085908e+01 </wgt>
<wgt id='1812'> -8.1074260e+01 </wgt>
<wgt id='1813'> -8.2293005e+01 </wgt>
<wgt id='1814'> -8.1221747e+01 </wgt>
<wgt id='1815'> -7.9605383e+01 </wgt>
<wgt id='1816'> -8.2968691e+01 </wgt>
<wgt id='1817'> -8.1315100e+01 </wgt>
<wgt id='1818'> -8.1984917e+01 </wgt>
<wgt id='1819'> -8.0364475e+01 </wgt>
<wgt id='1820'> -8.1328039e+01 </wgt>
<wgt id='1821'> -8.1120327e+01 </wgt>
<wgt id='1822'> -8.3208495e+01 </wgt>
<wgt id='1823'> -8.4000319e+01 </wgt>
<wgt id='1824'> -7.6120581e+01 </wgt>
<wgt id='1825'> -7.6087618e+01 </wgt>
<wgt id='1826'> -7.6054800e+01 </wgt>
<wgt id='1827'> -7.6022275e+01 </wgt>
<wgt id='1828'> -7.5989335e+01 </wgt>
<wgt id='1829'> -7.5956537e+01 </wgt>
<wgt id='1830'> -7.5923667e+01 </wgt>
<wgt id='1831'> -7.5890896e+01 </wgt>
<wgt id='1832'> -7.5857970e+01 </wgt>
<wgt id='1833'> -7.5825069e+01 </wgt>
<wgt id='1834'> -7.5792214e+01 </wgt>
<wgt id='1835'> -7.5759379e+01 </wgt>
<wgt id='1836'> -7.5726555e+01 </wgt>
<wgt id='1837'> -7.5694077e+01 </wgt>
<wgt id='1838'> -7.5661245e+01 </wgt>
<wgt id='1839'> -7.5628430e+01 </wgt>
<wgt id='1840'> -7.5595714e+01 </wgt>
<wgt id='1841'> -7.5562885e+01 </wgt>
<wgt id='1842'> -7.5530098e+01 </wgt>
<wgt id='1843'> -7.5497304e+01 </wgt>
<wgt id='1844'> -7.5464498e+01 </wgt>
<wgt id='1845'> -7.5431725e+01 </wgt>
<wgt id='1846'> -7.5398780e+01 </wgt>
<wgt id='1847'> -7.5366418e+01 </wgt>
<wgt id='1848'> -7.5333615e+01 </wgt>
<wgt id='1849'> -7.5300909e+01 </wgt>
<wgt id='1850'> -7.5268131e+01 </wgt>
<wgt id='1851'> -7.5235450e+01 </wgt>
<wgt id='1852'> -7.5202636e+01 </wgt>
<wgt id='1853'> -7.5169872e+01 </wgt>
<wgt id='1854'> -7.5137214e+01 </wgt>
<wgt id='1855'> -7.4319713e+01 </wgt>
<wgt id='1856'> -7.4537068e+01 </wgt>
<wgt id='1857'> -7.4238551e+01 </wgt>
<wgt id='1858'> -7.4506736e+01 </wgt>
<wgt id='1859'> -7.4625759e+01 </wgt>
<wgt id='1860'> -7.4323856e+01 </wgt>
<wgt id='1861'> -7.4564293e+01 </wgt>
<wgt id='1862'> -7.4916455e+01 </wgt>
<wgt id='1863'> -7.4653675e+01 </wgt>
<wgt id='1864'> -7.4266762e+01 </wgt>
<wgt id='1865'> -7.4213898e+01 </wgt>
<wgt id='1866'> -7.4754393e+01 </wgt>
<wgt id='1867'> -7.3738703e+01 </wgt>
<wgt id='1868'> -7.4123417e+01 </wgt>
<wgt id='1869'> -7.4097943e+01 </wgt>
<wgt id='1870'> -7.5011088e+01 </wgt>
<wgt id='1871'> -7.4052121e+01 </wgt>
<wgt id='1872'> -7.4289852e+01 </wgt>
<wgt id='1873'> -7.4863818e+01 </wgt>
<wgt id='1874'> -7.3458221e+01 </wgt>
<wgt id='1875'> -7.4146106e+01 </wgt>
<wgt id='1876'> -7.4455582e+01 </wgt>
<wgt id='1877'> -7.3575983e+01 </wgt>
<wgt id='1878'> -7.4263601e+01 </wgt>
<wgt id='1879'> -7.4625942e+01 </wgt>
<wgt id='1880'> -7.4332575e+01 </wgt>
<wgt id='1881'> -7.4119629e+01 </wgt>
<wgt id='1882'> -7.4221534e+01 </wgt>
<wgt id='1883'> -7.4244714e+01 </wgt>
<wgt id='1884'> -7.4185559e+01 </wgt>
<wgt id='1885'> -7.4246154e+01 </wgt>
<wgt id='1886'> -7.3797988e+01 </wgt>
<wgt id='1887'> -7.4227038e+01 </wgt>
<wgt id='1888'> -7.3801944e+01 </wgt>
<wgt id='1889'> -7.3969970e+01 </wgt>
<wgt id='1890'> -7.4583665e+01 </wgt>
<wgt id='1891'> -7.4622351e+01 </wgt>
<wgt id='1892'> -7.4295912e+01 </wgt>
<wgt id='1893'> -7.4290883e+01 </wgt>
<wgt id='1894'> -7.4559388e+01 </wgt>
<wgt id='1895'> -7.4001827e+01 </wgt>
<wgt id='1896'> -7.4248147e+01 </wgt>
<wgt id='1897'> -7.4130704e+01 </wgt>
<wgt id='1898'> -7.4295173e+01 </wgt>
<wgt id='1899'> -7.4180251e+01 </wgt>
<wgt id='1900'> -7.4324377e+01 </wgt>
<wgt id='1901'> -7.3954817e+01 </wgt>
<wgt id='1902'> -7.3547138e+01 </wgt>
<wgt id='1903'> -7.4169121e+01 </wgt>
<wgt id='1904'> -7.4277803e+01 </wgt>
<wgt id='1905'> -7.4327504e+01 </wgt>
<wgt id='1906'> -7.4184827e+01 </wgt>
<wgt id='1907'> -7.4285871e+01 </wgt>
<wgt id='1908'> -7.4437816e+01 </wgt>
<wgt id='1909'> -7.4146158e+01 </wgt>
<wgt id='1910'> -7.4392002e+01 </wgt>
<wgt id='1911'> -7.4681640e+01 </wgt>
<wgt id='1912'> -7.4229831e+01 </wgt>
<wgt id='1913'> -7.4198113e+01 </wgt>
<wgt id='1914'> -7.4207860e+01 </wgt>
<wgt id='1915'> -7.4394010e+01 </wgt>
<wgt id='1916'> -7.4304417e+01 </wgt>
<wgt id='1917'> -7.4293313e+01 </wgt>
<wgt id='1918'> -7.4304181e+01 </wgt>
<wgt id='1919'> -7.4144377e+01 </wgt>
<wgt id='1920'> -7.4722011e+01 </wgt>
<wgt id='1921'> -7.4153115e+01 </wgt>
<wgt id='1922'> -7.4412696e+01 </wgt>
<wgt id='1923'> -7.4464765e+01 </wgt>
<wgt id='1924'> -7.4398406e+01 </wgt>
<wgt id='1925'> -7.4264963e+01 </wgt>
<wgt id='1926'> -7.4321450e+01 </wgt>
<wgt id='1927'> -7.4431374e+01 </wgt>
<wgt id='1928'> -7.4309093e+01 </wgt>
<wgt id='1929'> -7.4402570e+01 </wgt>
<wgt id='1930'> -7.4262803e+01 </wgt>
<wgt id='1931'> -7.4288458e+01 </wgt>
<wgt id='1932'> -7.4453986e+01 </wgt>
<wgt id='1933'> -7.4226077e+01 </wgt>
<wgt id='1934'> -7.4144218e+01 </wgt>
<wgt id='1935'> -7.4356439e+01 </wgt>
<wgt id='1936'> -7.4377175e+01 </wgt>
<wgt id='1937'> -7.4333962e+01 </wgt>
<wgt id='1938'> -7.4413731e+01 </wgt>
<wgt id='1939'> -7.4291316e+01 </wgt>
<wgt id='1940'> -7.4297350e+01 </wgt>
<wgt id='1941'> -7.4341426e+01 </wgt>
<wgt id='1942'> -7.4258668e+01 </wgt>
<wgt id='1943'> -7.4343678e+01 </wgt>
<wgt id='1944'> -7.4306516e+01 </wgt>
<wgt id='1945'> -7.4306254e+01 </wgt>
<wgt id='1946'> -7.4299714e+01 </wgt>
<wgt id='1947'> -7.4313608e+01 </wgt>
<wgt id='1948'> -7.4307585e+01 </wgt>
<wgt id='1949'> -7.4314265e+01 </wgt>
<wgt id='1950'> -7.4345524e+01 </wgt>
<wgt id='1951'> -7.4294470e+01 </wgt>
<wgt id='1952'> -7.4326745e+01 </wgt>
<wgt id='1953'> -7.4324142e+01 </wgt>
<wgt id='1954'> -7.4278872e+01 </wgt>
<wgt id='1955'> -7.4312651e+01 </wgt>
<wgt id='1956'> -7.4319162e+01 </wgt>
<wgt id='1957'> -7.4322655e+01 </wgt>
<wgt id='1958'> -7.4320280e+01 </wgt>
<wgt id='1959'> -7.4320382e+01 </wgt>
<wgt id='1960'> -7.4321366e+01 </wgt>
<wgt id='1961'> -7.4319951e+01 </wgt>
<wgt id='1962'> -7.4323269e+01 </wgt>
</rwgt>
</event>
<event npLO=" -1 " npNLO=" 1 ">
 8      1 +1.5146096e+02 4.87473750e+02 7.54677110e-03 8.66221740e-02
        2 -1    0    0  501    0 +0.0000000000e+00 +0.0000000000e+00 +5.1613840000e+02 5.1613840000e+02 0.0000000000e+00 0.0000e+00 9.0000e+00
        2 -1    0    0  502    0 +0.0000000000e+00 +0.0000000000e+00 -6.2617717000e+02 6.2617717000e+02 0.0000000000e+00 0.0000e+00 9.0000e+00
       23  2    1    2    0    0 -3.6085909000e+02 +2.4611795000e+02 +7.0028930000e+01 4.5175352000e+02 9.1563458000e+01 0.0000e+00 0.0000e+00
       15  1    3    3    0    0 -1.0781151000e+02 +4.9608227000e+01 +1.4524845000e+01 1.1957603000e+02 1.7770000000e+00 0.0000e+00 9.0000e+00
      -15  1    3    3    0    0 -1.5796558000e+02 +1.6220534000e+02 +3.9189747000e+01 2.2978836000e+02 1.7770000000e+00 0.0000e+00 9.0000e+00
       22  1    3    3    0    0 -9.5081992000e+01 +3.4304388000e+01 +1.6314338000e+01 1.0238913000e+02 0.0000000000e+00 0.0000e+00 9.0000e+00
        2  1    1    2  501    0 +4.6360700000e+02 -2.7991137000e+02 -2.0586850000e+02 5.7936488000e+02 0.0000000000e+00 0.0000e+00 9.0000e+00
        2  1    1    2  502    0 -1.0274791000e+02 +3.3793421000e+01 +2.5800793000e+01 1.1119717000e+02 0.0000000000e+00 0.0000e+00 9.0000e+00
#aMCatNLO 2  0  0  1  6 0.13307946E+03 0.00000000E+00 -9  7  0 0.00000000E+00 0.00000000E+00 0.00000000E+00 0.00000000E+00 0.00000000E+00
<rwgt>
<wgt id='1001'> +1.5146000e+02 </wgt>
<wgt id='1002'> +1.5146000e+02 </wgt>
<wgt id='1003'> +1.5443000e+02 </wgt>
<wgt id='1004'> +1.5120000e+02 </wgt>
<wgt id='1005'> +1.5513000e+02 </wgt>
<wgt id='1006'> +1.5527000e+02 </wgt>
<wgt id='1007'> +1.5868000e+02 </wgt>
<wgt id='1008'> +1.5228000e+02 </wgt>
<wgt id='1009'> +1.4958000e+02 </wgt>
<wgt id='1010'> +1.4606000e+02 </wgt>
<wgt id='1011'> +1.5016000e+02 </wgt>
<wgt id='1012'> +1.5413000e+02 </wgt>
<wgt id='1013'> +1.5494000e+02 </wgt>
<wgt id='1014'> +1.5223000e+02 </wgt>
<wgt id='1015'> +1.5387000e+02 </wgt>
<wgt id='1016'> +1.5248000e+02 </wgt>
<wgt id='1017'> +1.5030000e+02 </wgt>
<wgt id='1018'> +1.4750000e+02 </wgt>
<wgt id='1019'> +1.4850000e+02 </wgt>
<wgt id='1020'> +1.4456000e+02 </wgt>
<wgt id='1021'> +1.4965000e+02 </wgt>
<wgt id='1022'> +1.4431000e+02 </wgt>
<wgt id='1023'> +1.5553000e+02 </wgt>
<wgt id='1024'> +1.4991000e+02 </wgt>
<wgt id='1025'> +1.5554000e+02 </wgt>
<wgt id='1026'> +1.5143000e+02 </wgt>
<wgt id='1027'> +1.5123000e+02 </wgt>
<wgt id='1028'> +1.5154000e+02 </wgt>
<wgt id='1029'> +1.4565000e+02 </wgt>
<wgt id='1030'> +1.5132000e+02 </wgt>
<wgt id='1031'> +1.4786000e+02 </wgt>
<wgt id='1032'> +1.4980000e+02 </wgt>
<wgt id='1033'> +1.5055000e+02 </wgt>
<wgt id='1034'> +1.5538000e+02 </wgt>
<wgt id='1035'> +1.4978000e+02 </wgt>
<wgt id='1036'> +1.5563000e+02 </wgt>
<wgt id='1037'> +1.5129000e+02 </wgt>
<wgt id='1038'> +1.5112000e+02 </wgt>
<wgt id='1039'> +1.4517000e+02 </wgt>
<wgt id='1040'> +1.5053000e+02 </wgt>
<wgt id='1041'> +1.5258000e+02 </wgt>
<wgt id='1042'> +1.5133000e+02 </wgt>
<wgt id='1043'> +1.5585000e+02 </wgt>
<wgt id='1044'> +1.5473000e+02 </wgt>
<wgt id='1045'> +1.5308000e+02 </wgt>
<wgt id='1046'> +1.5118000e+02 </wgt>
<wgt id='1047'> +1.5225000e+02 </wgt>
<wgt id='1048'> +1.5433000e+02 </wgt>
<wgt id='1049'> +1.5006000e+02 </wgt>
<wgt id='1050'> +1.5120000e+02 </wgt>
<wgt id='1051'> +1.4969000e+02 </wgt>
<wgt id='1052'> +1.5326000e+02 </wgt>
<wgt id='1053'> +1.5308000e+02 </wgt>
<wgt id='1054'> +1.5258000e+02 </wgt>
<wgt id='1055'> +1.5447000e+02 </wgt>
<wgt id='1056'> +1.5341000e+02 </wgt>
<wgt id='1057'> +1.5327000e+02 </wgt>
<wgt id='1058'> +1.5045000e+02 </wgt>
<wgt id='1059'> +1.5294000e+02 </wgt>
<wgt id='1060'> +1.5474000e+02 </wgt>
<wgt id='1061'> +1.4735000e+02 </wgt>
<wgt id='1062'> +1.5191000e+02 </wgt>
<wgt id='1063'> +1.5050000e+02 </wgt>
<wgt id='1064'> +1.4970000e+02 </wgt>
<wgt id='1065'> +1.5758000e+02 </wgt>
<wgt id='1066'> +1.4132000e+02 </wgt>
<wgt id='1067'> +1.5435000e+02 </wgt>
<wgt id='1068'> +1.4869000e+02 </wgt>
<wgt id='1069'> +1.5097000e+02 </wgt>
<wgt id='1070'> +1.5401000e+02 </wgt>
<wgt id='1071'> +1.5233000e+02 </wgt>
<wgt id='1072'> +1.4808000e+02 </wgt>
<wgt id='1073'> +1.5480000e+02 </wgt>
<wgt id='1074'> +1.5296000e+02 </wgt>
<wgt id='1075'> +1.5697000e+02 </wgt>
<wgt id='1076'> +1.5682000e+02 </wgt>
<wgt id='1077'> +1.5246000e+02 </wgt>
<wgt id='1078'> +1.5763000e+02 </wgt>
<wgt id='1079'> +1.5194000e+02 </wgt>
<wgt id='1080'> +1.5305000e+02 </wgt>
<wgt id='1081'> +1.5182000e+02 </wgt>
<wgt id='1082'> +1.4939000e+02 </wgt>
<wgt id='1083'> +1.5542000e+02 </wgt>
<wgt id='1084'> +1.5506000e+02 </wgt>
<wgt id='1085'> +1.4486000e+02 </wgt>
<wgt id='1086'> +1.5127000e+02 </wgt>
<wgt id='1087'> +1.4921000e+02 </wgt>
<wgt id='1088'> +1.4822000e+02 </wgt>
<wgt id='1089'> +1.5357000e+02 </wgt>
<wgt id='1090'> +1.5515000e+02 </wgt>
<wgt id='1091'> +1.4724000e+02 </wgt>
<wgt id='1092'> +1.5063000e+02 </wgt>
<wgt id='1093'> +1.5024000e+02 </wgt>
<wgt id='1094'> +1.4947000e+02 </wgt>
<wgt id='1095'> +1.4822000e+02 </wgt>
<wgt id='1096'> +1.5208000e+02 </wgt>
<wgt id='1097'> +1.4359000e+02 </wgt>
<wgt id='1098'> +1.5228000e+02 </wgt>
<wgt id='1099'> +1.4932000e+02 </wgt>
<wgt id='1100'> +1.5502000e+02 </wgt>
<wgt id='1101'> +1.5020000e+02 </wgt>
<wgt id='1102'> +1.4331000e+02 </wgt>
<wgt id='1103'> +1.4953000e+02 </wgt>
<wgt id='1104'> +1.5362000e+02 </wgt>
<wgt id='1105'> +1.5146096e+02 </wgt>
<wgt id='1106'> +6.5435085e+01 </wgt>
<wgt id='1107'> +8.8697439e+01 </wgt>
<wgt id='1108'> +7.3729415e+01 </wgt>
<wgt id='1109'> +6.3706061e+01 </wgt>
<wgt id='1110'> +8.6353742e+01 </wgt>
<wgt id='1111'> +7.7796244e+01 </wgt>
<wgt id='1112'> +6.7220013e+01 </wgt>
<wgt id='1113'> +9.1116914e+01 </wgt>
<wgt id='1114'> +7.8346391e+01 </wgt>
<wgt id='1115'> +7.9136324e+01 </wgt>
<wgt id='1116'> +8.0373405e+01 </wgt>
<wgt id='1117'> +7.6874225e+01 </wgt>
<wgt id='1118'> +7.5436757e+01 </wgt>
<wgt id='1119'> +7.7942928e+01 </wgt>
<wgt id='1120'> +7.7058185e+01 </wgt>
<wgt id='1121'> +8.1209981e+01 </wgt>
<wgt id='1122'> +7.9894373e+01 </wgt>
<wgt id='1123'> +7.8489201e+01 </wgt>
<wgt id='1124'> +7.3263965e+01 </wgt>
<wgt id='1125'> +7.6828345e+01 </wgt>
<wgt id='1126'> +7.7763237e+01 </wgt>
<wgt id='1127'> +7.7919129e+01 </wgt>
<wgt id='1128'> +8.0774087e+01 </wgt>
<wgt id='1129'> +7.9485844e+01 </wgt>
<wgt id='1130'> +7.8415245e+01 </wgt>
<wgt id='1131'> +7.8050457e+01 </wgt>
<wgt id='1132'> +7.8285535e+01 </wgt>
<wgt id='1133'> +8.0597190e+01 </wgt>
<wgt id='1134'> +7.7584727e+01 </wgt>
<wgt id='1135'> +7.8869442e+01 </wgt>
<wgt id='1136'> +7.9045654e+01 </wgt>
<wgt id='1137'> +8.0553783e+01 </wgt>
<wgt id='1138'> +7.7917669e+01 </wgt>
<wgt id='1139'> +8.1070013e+01 </wgt>
<wgt id='1140'> +8.1657977e+01 </wgt>
<wgt id='1141'> +7.4633359e+01 </wgt>
<wgt id='1142'> +7.9815262e+01 </wgt>
<wgt id='1143'> +7.9162096e+01 </wgt>
<wgt id='1144'> +7.8587020e+01 </wgt>
<wgt id='1145'> +7.8870695e+01 </wgt>
<wgt id='1146'> +7.6093618e+01 </wgt>
<wgt id='1147'> +7.9511238e+01 </wgt>
<wgt id='1148'> +7.7123164e+01 </wgt>
<wgt id='1149'> +7.5580406e+01 </wgt>
<wgt id='1150'> +7.9193595e+01 </wgt>
<wgt id='1151'> +7.8185927e+01 </wgt>
<wgt id='1152'> +7.7699120e+01 </wgt>
<wgt id='1153'> +7.9118986e+01 </wgt>
<wgt id='1154'> +7.9065821e+01 </wgt>
<wgt id='1155'> +7.9185727e+01 </wgt>
<wgt id='1156'> +7.8141709e+01 </wgt>
<wgt id='1157'> +7.6783093e+01 </wgt>
<wgt id='1158'> +7.8893344e+01 </wgt>
<wgt id='1159'> +7.9258723e+01 </wgt>
<wgt id='1160'> +7.8056544e+01 </wgt>
<wgt id='1161'> +7.8808595e+01 </wgt>
<wgt id='1162'> +8.0741210e+01 </wgt>
<wgt id='1163'> +8.0119122e+01 </wgt>
<wgt id='1164'> +7.6904701e+01 </wgt>
<wgt id='1165'> +7.8185902e+01 </wgt>
<wgt id='1166'> +7.9256366e+01 </wgt>
<wgt id='1167'> +7.8760398e+01 </wgt>
<wgt id='1168'> +7.8271795e+01 </wgt>
<wgt id='1169'> +8.1727495e+01 </wgt>
<wgt id='1170'> +7.8091285e+01 </wgt>
<wgt id='1171'> +7.9607256e+01 </wgt>
<wgt id='1172'> +8.0679700e+01 </wgt>
<wgt id='1173'> +7.9511792e+01 </wgt>
<wgt id='1174'> +8.0780649e+01 </wgt>
<wgt id='1175'> +7.6377091e+01 </wgt>
<wgt id='1176'> +7.8066360e+01 </wgt>
<wgt id='1177'> +7.7852325e+01 </wgt>
<wgt id='1178'> +7.9673141e+01 </wgt>
<wgt id='1179'> +7.9544341e+01 </wgt>
<wgt id='1180'> +8.2043829e+01 </wgt>
<wgt id='1181'> +7.9214772e+01 </wgt>
<wgt id='1182'> +7.8456882e+01 </wgt>
<wgt id='1183'> +8.0012245e+01 </wgt>
<wgt id='1184'> +7.7224779e+01 </wgt>
<wgt id='1185'> +7.8005341e+01 </wgt>
<wgt id='1186'> +7.9793563e+01 </wgt>
<wgt id='1187'> +7.5976744e+01 </wgt>
<wgt id='1188'> +7.6377124e+01 </wgt>
<wgt id='1189'> +7.7213400e+01 </wgt>
<wgt id='1190'> +8.0196697e+01 </wgt>
<wgt id='1191'> +7.5942951e+01 </wgt>
<wgt id='1192'> +8.0138352e+01 </wgt>
<wgt id='1193'> +7.8400974e+01 </wgt>
<wgt id='1194'> +7.6912580e+01 </wgt>
<wgt id='1195'> +7.6858067e+01 </wgt>
<wgt id='1196'> +7.8415245e+01 </wgt>
<wgt id='1197'> +7.3367755e+01 </wgt>
<wgt id='1198'> +7.7620405e+01 </wgt>
<wgt id='1199'> +7.7565867e+01 </wgt>
<wgt id='1200'> +7.8137758e+01 </wgt>
<wgt id='1201'> +7.7392290e+01 </wgt>
<wgt id='1202'> +7.4425248e+01 </wgt>
<wgt id='1203'> +7.1638847e+01 </wgt>
<wgt id='1204'> +7.9017038e+01 </wgt>
<wgt id='1205'> +8.0718529e+01 </wgt>
<wgt id='1206'> +7.8079737e+01 </wgt>
<wgt id='1207'> +7.6968803e+01 </wgt>
<wgt id='1208'> +7.8180413e+01 </wgt>
<wgt id='1209'> +7.6771146e+01 </wgt>
<wgt id='1210'> +8.0296990e+01 </wgt>
<wgt id='1211'> +7.6513534e+01 </wgt>
<wgt id='1212'> +7.8686546e+01 </wgt>
<wgt id='1213'> +7.9464270e+01 </wgt>
<wgt id='1214'> +7.9254280e+01 </wgt>
<wgt id='1215'> +7.6108003e+01 </wgt>
<wgt id='1216'> +7.7385842e+01 </wgt>
<wgt id='1217'> +7.7443828e+01 </wgt>
<wgt id='1218'> +7.7393717e+01 </wgt>
<wgt id='1219'> +7.7466892e+01 </wgt>
<wgt id='1220'> +7.7207283e+01 </wgt>
<wgt id='1221'> +7.7442855e+01 </wgt>
<wgt id='1222'> +7.7533210e+01 </wgt>
<wgt id='1223'> +7.7512020e+01 </wgt>
<wgt id='1224'> +7.7341151e+01 </wgt>
<wgt id='1225'> +7.7581860e+01 </wgt>
<wgt id='1226'> +7.7493192e+01 </wgt>
<wgt id='1227'> +7.7321138e+01 </wgt>
<wgt id='1228'> +7.7096815e+01 </wgt>
<wgt id='1229'> +7.7339673e+01 </wgt>
<wgt id='1230'> +7.7582872e+01 </wgt>
<wgt id='1231'> +7.7255919e+01 </wgt>
<wgt id='1232'> +7.7202222e+01 </wgt>
<wgt id='1233'> +7.7376761e+01 </wgt>
<wgt id='1234'> +7.7242409e+01 </wgt>
<wgt id='1235'> +7.7283090e+01 </wgt>
<wgt id='1236'> +7.7066027e+01 </wgt>
<wgt id='1237'> +7.7702001e+01 </wgt>
<wgt id='1238'> +7.7552869e+01 </wgt>
<wgt id='1239'> +7.7864258e+01 </wgt>
<wgt id='1240'> +7.7454535e+01 </wgt>
<wgt id='1241'> +7.6974708e+01 </wgt>
<wgt id='1242'> +7.7278533e+01 </wgt>
<wgt id='1243'> +7.7224959e+01 </wgt>
<wgt id='1244'> +7.7680297e+01 </wgt>
<wgt id='1245'> +7.7973994e+01 </wgt>
<wgt id='1246'> +7.6424363e+01 </wgt>
<wgt id='1247'> +7.6650410e+01 </wgt>
<wgt id='1248'> +7.7642090e+01 </wgt>
<wgt id='1249'> +7.7498535e+01 </wgt>
<wgt id='1250'> +7.7308901e+01 </wgt>
<wgt id='1251'> +7.7561892e+01 </wgt>
<wgt id='1252'> +7.7546667e+01 </wgt>
<wgt id='1253'> +7.7094346e+01 </wgt>
<wgt id='1254'> +7.7481797e+01 </wgt>
<wgt id='1255'> +7.7407070e+01 </wgt>
<wgt id='1256'> +7.7320703e+01 </wgt>
<wgt id='1257'> +7.7499520e+01 </wgt>
<wgt id='1258'> +7.7538256e+01 </wgt>
<wgt id='1259'> +7.7236851e+01 </wgt>
<wgt id='1260'> +7.7433482e+01 </wgt>
<wgt id='1261'> +7.7509718e+01 </wgt>
<wgt id='1262'> +7.7324215e+01 </wgt>
<wgt id='1263'> +7.7362651e+01 </wgt>
<wgt id='1264'> +7.7607273e+01 </wgt>
<wgt id='1265'> +7.7415018e+01 </wgt>
<wgt id='1266'> +7.7265947e+01 </wgt>
<wgt id='1267'> +7.7412304e+01 </wgt>
<wgt id='1268'> +7.7440801e+01 </wgt>
<wgt id='1269'> +7.7156925e+01 </wgt>
<wgt id='1270'> +7.7318551e+01 </wgt>
<wgt id='1271'> +7.7387523e+01 </wgt>
<wgt id='1272'> +7.7191758e+01 </wgt>
<wgt id='1273'> +7.7477144e+01 </wgt>
<wgt id='1274'> +7.7187304e+01 </wgt>
<wgt id='1275'> +7.7445857e+01 </wgt>
<wgt id='1276'> +7.7368787e+01 </wgt>
<wgt id='1277'> +7.7401894e+01 </wgt>
<wgt id='1278'> +7.7198060e+01 </wgt>
<wgt id='1279'> +7.7474358e+01 </wgt>
<wgt id='1280'> +7.7253473e+01 </wgt>
<wgt id='1281'> +7.7529814e+01 </wgt>
<wgt id='1282'> +7.7371919e+01 </wgt>
<wgt id='1283'> +7.7159188e+01 </wgt>
<wgt id='1284'> +7.7563304e+01 </wgt>
<wgt id='1285'> +7.7241411e+01 </wgt>
<wgt id='1286'> +7.7400838e+01 </wgt>
<wgt id='1287'> +7.7335536e+01 </wgt>
<wgt id='1288'> +7.7450673e+01 </wgt>
<wgt id='1289'> +7.7418539e+01 </wgt>
<wgt id='1290'> +7.7520157e+01 </wgt>
<wgt id='1291'> +7.7275403e+01 </wgt>
<wgt id='1292'> +7.7423611e+01 </wgt>
<wgt id='1293'> +7.7399668e+01 </wgt>
<wgt id='1294'> +7.7396203e+01 </wgt>
<wgt id='1295'> +7.7313012e+01 </wgt>
<wgt id='1296'> +7.7391108e+01 </wgt>
<wgt id='1297'> +7.7486928e+01 </wgt>
<wgt id='1298'> +7.7289907e+01 </wgt>
<wgt id='1299'> +7.7418782e+01 </wgt>
<wgt id='1300'> +7.7279343e+01 </wgt>
<wgt id='1301'> +7.7323720e+01 </wgt>
<wgt id='1302'> +7.7385868e+01 </wgt>
<wgt id='1303'> +7.7448812e+01 </wgt>
<wgt id='1304'> +7.7281010e+01 </wgt>
<wgt id='1305'> +7.7272545e+01 </wgt>
<wgt id='1306'> +7.7331988e+01 </wgt>
<wgt id='1307'> +7.7436760e+01 </wgt>
<wgt id='1308'> +7.7368270e+01 </wgt>
<wgt id='1309'> +7.7350655e+01 </wgt>
<wgt id='1310'> +7.7462712e+01 </wgt>
<wgt id='1311'> +7.7427323e+01 </wgt>
<wgt id='1312'> +7.7291591e+01 </wgt>
<wgt id='1313'> +7.7393057e+01 </wgt>
<wgt id='1314'> +7.7441918e+01 </wgt>
<wgt id='1315'> +7.7313525e+01 </wgt>
<wgt id='1316'> +7.7341706e+01 </wgt>
<wgt id='1317'> +7.5388055e+01 </wgt>
<wgt id='1318'> +7.9494438e+01 </wgt>
<wgt id='1319'> +6.9838566e+01 </wgt>
<wgt id='1320'> +7.8279051e+01 </wgt>
<wgt id='1321'> +7.8339955e+01 </wgt>
<wgt id='1322'> +7.8606844e+01 </wgt>
<wgt id='1323'> +7.7941260e+01 </wgt>
<wgt id='1324'> +7.8231142e+01 </wgt>
<wgt id='1325'> +7.7213014e+01 </wgt>
<wgt id='1326'> +7.9845672e+01 </wgt>
<wgt id='1327'> +7.6869289e+01 </wgt>
<wgt id='1328'> +7.9116600e+01 </wgt>
<wgt id='1329'> +7.7696594e+01 </wgt>
<wgt id='1330'> +8.0023691e+01 </wgt>
<wgt id='1331'> +8.0372977e+01 </wgt>
<wgt id='1332'> +7.7017551e+01 </wgt>
<wgt id='1333'> +7.8384883e+01 </wgt>
<wgt id='1334'> +7.8108997e+01 </wgt>
<wgt id='1335'> +7.8130259e+01 </wgt>
<wgt id='1336'> +7.7947794e+01 </wgt>
<wgt id='1337'> +7.9419836e+01 </wgt>
<wgt id='1338'> +7.6940255e+01 </wgt>
<wgt id='1339'> +7.9567051e+01 </wgt>
<wgt id='1340'> +7.6979298e+01 </wgt>
<wgt id='1341'> +7.8212159e+01 </wgt>
<wgt id='1342'> +7.8321829e+01 </wgt>
<wgt id='1343'> +7.8093181e+01 </wgt>
<wgt id='1344'> +7.8614349e+01 </wgt>
<wgt id='1345'> +7.8089902e+01 </wgt>
<wgt id='1346'> +7.8414789e+01 </wgt>
<wgt id='1347'> +7.8331626e+01 </wgt>
<wgt id='1348'> +7.8211954e+01 </wgt>
<wgt id='1349'> +7.7519859e+01 </wgt>
<wgt id='1350'> +7.8546217e+01 </wgt>
<wgt id='1351'> +7.8362925e+01 </wgt>
<wgt id='1352'> +7.8172295e+01 </wgt>
<wgt id='1353'> +7.8646610e+01 </wgt>
<wgt id='1354'> +7.7463046e+01 </wgt>
<wgt id='1355'> +7.7695186e+01 </wgt>
<wgt id='1356'> +7.8875861e+01 </wgt>
<wgt id='1357'> +7.7860587e+01 </wgt>
<wgt id='1358'> +7.8847766e+01 </wgt>
<wgt id='1359'> +7.7594122e+01 </wgt>
<wgt id='1360'> +7.8653384e+01 </wgt>
<wgt id='1361'> +7.8724106e+01 </wgt>
<wgt id='1362'> +7.7854094e+01 </wgt>
<wgt id='1363'> +7.8167562e+01 </wgt>
<wgt id='1364'> +7.8391816e+01 </wgt>
<wgt id='1365'> +7.8899764e+01 </wgt>
<wgt id='1366'> +7.7972764e+01 </wgt>
<wgt id='1367'> +7.8665197e+01 </wgt>
<wgt id='1368'> +7.7768229e+01 </wgt>
<wgt id='1369'> +7.8425966e+01 </wgt>
<wgt id='1370'> +7.7970580e+01 </wgt>
<wgt id='1371'> +7.8744727e+01 </wgt>
<wgt id='1372'> +7.9587115e+01 </wgt>
<wgt id='1373'> +7.8170736e+01 </wgt>
<wgt id='1374'> +7.8215001e+01 </wgt>
<wgt id='1375'> +7.8019555e+01 </wgt>
<wgt id='1376'> +7.8706013e+01 </wgt>
<wgt id='1377'> +7.6329556e+01 </wgt>
<wgt id='1378'> +8.0118211e+01 </wgt>
<wgt id='1379'> +7.8523040e+01 </wgt>
<wgt id='1380'> +7.6700944e+01 </wgt>
<wgt id='1381'> +8.0287092e+01 </wgt>
<wgt id='1382'> +6.9685438e+01 </wgt>
<wgt id='1383'> +7.4369483e+01 </wgt>
<wgt id='1384'> +7.7611453e+01 </wgt>
<wgt id='1385'> +7.3145596e+01 </wgt>
<wgt id='1386'> +7.3222420e+01 </wgt>
<wgt id='1387'> +7.3058112e+01 </wgt>
<wgt id='1388'> +7.3320438e+01 </wgt>
<wgt id='1389'> +7.2842752e+01 </wgt>
<wgt id='1390'> +7.3117603e+01 </wgt>
<wgt id='1391'> +7.3177443e+01 </wgt>
<wgt id='1392'> +7.3404517e+01 </wgt>
<wgt id='1393'> +7.2963011e+01 </wgt>
<wgt id='1394'> +7.3545561e+01 </wgt>
<wgt id='1395'> +7.2648575e+01 </wgt>
<wgt id='1396'> +7.3197596e+01 </wgt>
<wgt id='1397'> +7.3117598e+01 </wgt>
<wgt id='1398'> +7.2682470e+01 </wgt>
<wgt id='1399'> +7.3494273e+01 </wgt>
<wgt id='1400'> +7.3784098e+01 </wgt>
<wgt id='1401'> +7.2655948e+01 </wgt>
<wgt id='1402'> +7.3916045e+01 </wgt>
<wgt id='1403'> +7.2793108e+01 </wgt>
<wgt id='1404'> +7.0472911e+01 </wgt>
<wgt id='1405'> +7.4465325e+01 </wgt>
<wgt id='1406'> +7.2904187e+01 </wgt>
<wgt id='1407'> +7.3575769e+01 </wgt>
<wgt id='1408'> +7.3347466e+01 </wgt>
<wgt id='1409'> +7.2727925e+01 </wgt>
<wgt id='1410'> +7.3299080e+01 </wgt>
<wgt id='1411'> +7.2760085e+01 </wgt>
<wgt id='1412'> +7.3388070e+01 </wgt>
<wgt id='1413'> +7.2854824e+01 </wgt>
<wgt id='1414'> +7.2863794e+01 </wgt>
<wgt id='1415'> +7.3200093e+01 </wgt>
<wgt id='1416'> +7.3442448e+01 </wgt>
<wgt id='1417'> +7.3085020e+01 </wgt>
<wgt id='1418'> +7.2781186e+01 </wgt>
<wgt id='1419'> +7.3909558e+01 </wgt>
<wgt id='1420'> +7.3075478e+01 </wgt>
<wgt id='1421'> +7.3143544e+01 </wgt>
<wgt id='1422'> +7.3227228e+01 </wgt>
<wgt id='1423'> +7.3092215e+01 </wgt>
<wgt id='1424'> +7.3422988e+01 </wgt>
<wgt id='1425'> +7.2682276e+01 </wgt>
<wgt id='1426'> +7.3232286e+01 </wgt>
<wgt id='1427'> +7.3102696e+01 </wgt>
<wgt id='1428'> +7.2987191e+01 </wgt>
<wgt id='1429'> +7.2899088e+01 </wgt>
<wgt id='1430'> +7.3271722e+01 </wgt>
<wgt id='1431'> +7.3150974e+01 </wgt>
<wgt id='1432'> +7.3201486e+01 </wgt>
<wgt id='1433'> +7.3230843e+01 </wgt>
<wgt id='1434'> +7.3473584e+01 </wgt>
<wgt id='1435'> +7.3762051e+01 </wgt>
<wgt id='1436'> +6.5189228e+01 </wgt>
<wgt id='1437'> +6.5209890e+01 </wgt>
<wgt id='1438'> +6.5109063e+01 </wgt>
<wgt id='1439'> +6.5190726e+01 </wgt>
<wgt id='1440'> +6.5140193e+01 </wgt>
<wgt id='1441'> +6.5254250e+01 </wgt>
<wgt id='1442'> +6.5211872e+01 </wgt>
<wgt id='1443'> +6.5429557e+01 </wgt>
<wgt id='1444'> +6.5085829e+01 </wgt>
<wgt id='1445'> +6.4729656e+01 </wgt>
<wgt id='1446'> +6.5427469e+01 </wgt>
<wgt id='1447'> +6.5378767e+01 </wgt>
<wgt id='1448'> +6.5195547e+01 </wgt>
<wgt id='1449'> +6.5371010e+01 </wgt>
<wgt id='1450'> +6.5152594e+01 </wgt>
<wgt id='1451'> +6.5356313e+01 </wgt>
<wgt id='1452'> +6.4726928e+01 </wgt>
<wgt id='1453'> +6.5103001e+01 </wgt>
<wgt id='1454'> +6.5226890e+01 </wgt>
<wgt id='1455'> +6.4781896e+01 </wgt>
<wgt id='1456'> +6.4981535e+01 </wgt>
<wgt id='1457'> +6.5259224e+01 </wgt>
<wgt id='1458'> +6.5426063e+01 </wgt>
<wgt id='1459'> +6.5185362e+01 </wgt>
<wgt id='1460'> +6.5272089e+01 </wgt>
<wgt id='1461'> +6.5834343e+01 </wgt>
<wgt id='1462'> +6.5189646e+01 </wgt>
<wgt id='1463'> +6.5416760e+01 </wgt>
<wgt id='1464'> +6.5079275e+01 </wgt>
<wgt id='1465'> +8.2225819e+01 </wgt>
<wgt id='1466'> +7.6103621e+01 </wgt>
<wgt id='1467'> +7.5747414e+01 </wgt>
<wgt id='1468'> +7.5554190e+01 </wgt>
<wgt id='1469'> +7.6135811e+01 </wgt>
<wgt id='1470'> +7.5960797e+01 </wgt>
<wgt id='1471'> +7.6313358e+01 </wgt>
<wgt id='1472'> +7.5626964e+01 </wgt>
<wgt id='1473'> +7.6390116e+01 </wgt>
<wgt id='1474'> +7.6227614e+01 </wgt>
<wgt id='1475'> +7.5714256e+01 </wgt>
<wgt id='1476'> +7.5132391e+01 </wgt>
<wgt id='1477'> +7.5874134e+01 </wgt>
<wgt id='1478'> +7.6012512e+01 </wgt>
<wgt id='1479'> +7.7039047e+01 </wgt>
<wgt id='1480'> +7.6118447e+01 </wgt>
<wgt id='1481'> +7.5929421e+01 </wgt>
<wgt id='1482'> +7.5816298e+01 </wgt>
<wgt id='1483'> +7.5858366e+01 </wgt>
<wgt id='1484'> +7.6875308e+01 </wgt>
<wgt id='1485'> +7.5905003e+01 </wgt>
<wgt id='1486'> +7.6094292e+01 </wgt>
<wgt id='1487'> +7.6329166e+01 </wgt>
<wgt id='1488'> +7.5466592e+01 </wgt>
<wgt id='1489'> +7.6866781e+01 </wgt>
<wgt id='1490'> +7.6024199e+01 </wgt>
<wgt id='1491'> +7.6660232e+01 </wgt>
<wgt id='1492'> +7.6155681e+01 </wgt>
<wgt id='1493'> +7.5744520e+01 </wgt>
<wgt id='1494'> +7.6776343e+01 </wgt>
<wgt id='1495'> +7.5943621e+01 </wgt>
<wgt id='1496'> +7.5683085e+01 </wgt>
<wgt id='1497'> +7.6205954e+01 </wgt>
<wgt id='1498'> +7.5876762e+01 </wgt>
<wgt id='1499'> +7.5659329e+01 </wgt>
<wgt id='1500'> +7.6187928e+01 </wgt>
<wgt id='1501'> +7.6329210e+01 </wgt>
<wgt id='1502'> +7.5938989e+01 </wgt>
<wgt id='1503'> +7.5776126e+01 </wgt>
<wgt id='1504'> +7.6217783e+01 </wgt>
<wgt id='1505'> +7.6382214e+01 </wgt>
<wgt id='1506'> +7.6215012e+01 </wgt>
<wgt id='1507'> +7.6327930e+01 </wgt>
<wgt id='1508'> +7.5984092e+01 </wgt>
<wgt id='1509'> +7.6051437e+01 </wgt>
<wgt id='1510'> +7.6312139e+01 </wgt>
<wgt id='1511'> +7.6165200e+01 </wgt>
<wgt id='1512'> +7.5917487e+01 </wgt>
<wgt id='1513'> +7.5895802e+01 </wgt>
<wgt id='1514'> +7.5961420e+01 </wgt>
<wgt id='1515'> +7.6098825e+01 </wgt>
<wgt id='1516'> +7.6038574e+01 </wgt>
<wgt id='1517'> +7.6069424e+01 </wgt>
<wgt id='1518'> +7.6053796e+01 </wgt>
<wgt id='1519'> +7.6191132e+01 </wgt>
<wgt id='1520'> +7.6169950e+01 </wgt>
<wgt id='1521'> +7.6031916e+01 </wgt>
<wgt id='1522'> +7.6296879e+01 </wgt>
<wgt id='1523'> +7.6095771e+01 </wgt>
<wgt id='1524'> +7.6146412e+01 </wgt>
<wgt id='1525'> +7.6012171e+01 </wgt>
<wgt id='1526'> +7.5944283e+01 </wgt>
<wgt id='1527'> +7.6002535e+01 </wgt>
<wgt id='1528'> +7.5988084e+01 </wgt>
<wgt id='1529'> +7.6065528e+01 </wgt>
<wgt id='1530'> +7.6020093e+01 </wgt>
<wgt id='1531'> +7.6056960e+01 </wgt>
<wgt id='1532'> +7.5987279e+01 </wgt>
<wgt id='1533'> +7.6044602e+01 </wgt>
<wgt id='1534'> +7.6090401e+01 </wgt>
<wgt id='1535'> +7.6098078e+01 </wgt>
<wgt id='1536'> +7.6082123e+01 </wgt>
<wgt id='1537'> +7.6054678e+01 </wgt>
<wgt id='1538'> +7.6069985e+01 </wgt>
<wgt id='1539'> +7.6110118e+01 </wgt>
<wgt id='1540'> +7.6036051e+01 </wgt>
<wgt id='1541'> +7.6101057e+01 </wgt>
<wgt id='1542'> +7.6090906e+01 </wgt>
<wgt id='1543'> +7.6038516e+01 </wgt>
<wgt id='1544'> +7.6084302e+01 </wgt>
<wgt id='1545'> +7.6203335e+01 </wgt>
<wgt id='1546'> +7.6108197e+01 </wgt>
<wgt id='1547'> +7.6096999e+01 </wgt>
<wgt id='1548'> +7.6054283e+01 </wgt>
<wgt id='1549'> +7.6101509e+01 </wgt>
<wgt id='1550'> +7.6132811e+01 </wgt>
<wgt id='1551'> +7.6116932e+01 </wgt>
<wgt id='1552'> +7.6145661e+01 </wgt>
<wgt id='1553'> +7.6085020e+01 </wgt>
<wgt id='1554'> +7.6068197e+01 </wgt>
<wgt id='1555'> +7.6145691e+01 </wgt>
<wgt id='1556'> +7.6085213e+01 </wgt>
<wgt id='1557'> +7.6099219e+01 </wgt>
<wgt id='1558'> +7.6143389e+01 </wgt>
<wgt id='1559'> +7.6132015e+01 </wgt>
<wgt id='1560'> +7.6105254e+01 </wgt>
<wgt id='1561'> +7.6071623e+01 </wgt>
<wgt id='1562'> +7.6128607e+01 </wgt>
<wgt id='1563'> +7.6071506e+01 </wgt>
<wgt id='1564'> +7.6113926e+01 </wgt>
<wgt id='1565'> +7.6087793e+01 </wgt>
<wgt id='1566'> +7.6111356e+01 </wgt>
<wgt id='1567'> +7.4476411e+01 </wgt>
<wgt id='1568'> +7.7696937e+01 </wgt>
<wgt id='1569'> +7.7469022e+01 </wgt>
<wgt id='1570'> +7.7696719e+01 </wgt>
<wgt id='1571'> +7.7087043e+01 </wgt>
<wgt id='1572'> +7.7755083e+01 </wgt>
<wgt id='1573'> +7.7747504e+01 </wgt>
<wgt id='1574'> +7.7606180e+01 </wgt>
<wgt id='1575'> +7.7554122e+01 </wgt>
<wgt id='1576'> +7.7361175e+01 </wgt>
<wgt id='1577'> +7.7521107e+01 </wgt>
<wgt id='1578'> +7.7601123e+01 </wgt>
<wgt id='1579'> +7.7785666e+01 </wgt>
<wgt id='1580'> +7.7275755e+01 </wgt>
<wgt id='1581'> +7.7314880e+01 </wgt>
<wgt id='1582'> +7.7747696e+01 </wgt>
<wgt id='1583'> +7.7239087e+01 </wgt>
<wgt id='1584'> +7.7164464e+01 </wgt>
<wgt id='1585'> +7.7251150e+01 </wgt>
<wgt id='1586'> +7.7565987e+01 </wgt>
<wgt id='1587'> +7.7677632e+01 </wgt>
<wgt id='1588'> +7.6743271e+01 </wgt>
<wgt id='1589'> +7.7564443e+01 </wgt>
<wgt id='1590'> +7.7824041e+01 </wgt>
<wgt id='1591'> +7.7089692e+01 </wgt>
<wgt id='1592'> +7.7902473e+01 </wgt>
<wgt id='1593'> +7.8256008e+01 </wgt>
<wgt id='1594'> +7.7441288e+01 </wgt>
<wgt id='1595'> +7.7365491e+01 </wgt>
<wgt id='1596'> +7.7627749e+01 </wgt>
<wgt id='1597'> +7.7380436e+01 </wgt>
<wgt id='1598'> +7.7403166e+01 </wgt>
<wgt id='1599'> +7.7630015e+01 </wgt>
<wgt id='1600'> +7.7939985e+01 </wgt>
<wgt id='1601'> +7.7840296e+01 </wgt>
<wgt id='1602'> +7.8191086e+01 </wgt>
<wgt id='1603'> +7.7901567e+01 </wgt>
<wgt id='1604'> +7.7098386e+01 </wgt>
<wgt id='1605'> +7.7628508e+01 </wgt>
<wgt id='1606'> +7.7289450e+01 </wgt>
<wgt id='1607'> +7.7554585e+01 </wgt>
<wgt id='1608'> +7.7429845e+01 </wgt>
<wgt id='1609'> +7.7415391e+01 </wgt>
<wgt id='1610'> +7.7579438e+01 </wgt>
<wgt id='1611'> +7.7622452e+01 </wgt>
<wgt id='1612'> +7.7117777e+01 </wgt>
<wgt id='1613'> +7.7538452e+01 </wgt>
<wgt id='1614'> +7.7256004e+01 </wgt>
<wgt id='1615'> +7.7577822e+01 </wgt>
<wgt id='1616'> +7.7437272e+01 </wgt>
<wgt id='1617'> +7.7793684e+01 </wgt>
<wgt id='1618'> +7.7370627e+01 </wgt>
<wgt id='1619'> +7.7586529e+01 </wgt>
<wgt id='1620'> +7.7461434e+01 </wgt>
<wgt id='1621'> +7.7295002e+01 </wgt>
<wgt id='1622'> +7.7540034e+01 </wgt>
<wgt id='1623'> +7.7446219e+01 </wgt>
<wgt id='1624'> +7.7528166e+01 </wgt>
<wgt id='1625'> +7.7427565e+01 </wgt>
<wgt id='1626'> +7.7384500e+01 </wgt>
<wgt id='1627'> +7.7384122e+01 </wgt>
<wgt id='1628'> +7.7472534e+01 </wgt>
<wgt id='1629'> +7.7350696e+01 </wgt>
<wgt id='1630'> +7.7550326e+01 </wgt>
<wgt id='1631'> +7.7442191e+01 </wgt>
<wgt id='1632'> +7.7464287e+01 </wgt>
<wgt id='1633'> +7.7299782e+01 </wgt>
<wgt id='1634'> +7.7562466e+01 </wgt>
<wgt id='1635'> +7.7528013e+01 </wgt>
<wgt id='1636'> +7.7522005e+01 </wgt>
<wgt id='1637'> +7.7531634e+01 </wgt>
<wgt id='1638'> +7.7516729e+01 </wgt>
<wgt id='1639'> +7.7522538e+01 </wgt>
<wgt id='1640'> +7.7550325e+01 </wgt>
<wgt id='1641'> +7.7476230e+01 </wgt>
<wgt id='1642'> +7.7511783e+01 </wgt>
<wgt id='1643'> +7.7472681e+01 </wgt>
<wgt id='1644'> +7.7440232e+01 </wgt>
<wgt id='1645'> +7.7374609e+01 </wgt>
<wgt id='1646'> +7.7499379e+01 </wgt>
<wgt id='1647'> +7.7444299e+01 </wgt>
<wgt id='1648'> +7.7482646e+01 </wgt>
<wgt id='1649'> +7.7538244e+01 </wgt>
<wgt id='1650'> +7.7461935e+01 </wgt>
<wgt id='1651'> +7.7498635e+01 </wgt>
<wgt id='1652'> +7.7467492e+01 </wgt>
<wgt id='1653'> +7.7478380e+01 </wgt>
<wgt id='1654'> +7.7448987e+01 </wgt>
<wgt id='1655'> +7.7537430e+01 </wgt>
<wgt id='1656'> +7.7414265e+01 </wgt>
<wgt id='1657'> +7.7463346e+01 </wgt>
<wgt id='1658'> +7.7478301e+01 </wgt>
<wgt id='1659'> +7.7509389e+01 </wgt>
<wgt id='1660'> +7.7403867e+01 </wgt>
<wgt id='1661'> +7.7461872e+01 </wgt>
<wgt id='1662'> +7.7432178e+01 </wgt>
<wgt id='1663'> +7.7493896e+01 </wgt>
<wgt id='1664'> +7.7439541e+01 </wgt>
<wgt id='1665'> +7.7435019e+01 </wgt>
<wgt id='1666'> +7.7476328e+01 </wgt>
<wgt id='1667'> +7.7495036e+01 </wgt>
<wgt id='1668'> +7.7476819e+01 </wgt>
<wgt id='1669'> +7.7452968e+01 </wgt>
<wgt id='1670'> +7.5607058e+01 </wgt>
<wgt id='1671'> +7.8944692e+01 </wgt>
<wgt id='1672'> +7.6122811e+01 </wgt>
<wgt id='1673'> +7.4995712e+01 </wgt>
<wgt id='1674'> +7.5387196e+01 </wgt>
<wgt id='1675'> +7.6108558e+01 </wgt>
<wgt id='1676'> +7.7364382e+01 </wgt>
<wgt id='1677'> +7.5660066e+01 </wgt>
<wgt id='1678'> +7.6049623e+01 </wgt>
<wgt id='1679'> +7.6039785e+01 </wgt>
<wgt id='1680'> +7.6309494e+01 </wgt>
<wgt id='1681'> +7.5935328e+01 </wgt>
<wgt id='1682'> +7.6230015e+01 </wgt>
<wgt id='1683'> +7.6186844e+01 </wgt>
<wgt id='1684'> +7.6980094e+01 </wgt>
<wgt id='1685'> +7.6132605e+01 </wgt>
<wgt id='1686'> +7.6190419e+01 </wgt>
<wgt id='1687'> +7.6271332e+01 </wgt>
<wgt id='1688'> +7.6121705e+01 </wgt>
<wgt id='1689'> +7.6160420e+01 </wgt>
<wgt id='1690'> +7.6065003e+01 </wgt>
<wgt id='1691'> +7.6512942e+01 </wgt>
<wgt id='1692'> +7.6457415e+01 </wgt>
<wgt id='1693'> +7.5807244e+01 </wgt>
<wgt id='1694'> +7.5863584e+01 </wgt>
<wgt id='1695'> +7.6193871e+01 </wgt>
<wgt id='1696'> +7.5736131e+01 </wgt>
<wgt id='1697'> +7.6281289e+01 </wgt>
<wgt id='1698'> +7.5849344e+01 </wgt>
<wgt id='1699'> +7.6351527e+01 </wgt>
<wgt id='1700'> +7.5890553e+01 </wgt>
<wgt id='1701'> +7.6088129e+01 </wgt>
<wgt id='1702'> +7.6222747e+01 </wgt>
<wgt id='1703'> +7.4476411e+01 </wgt>
<wgt id='1704'> +7.7696937e+01 </wgt>
<wgt id='1705'> +7.7463653e+01 </wgt>
<wgt id='1706'> +7.7877375e+01 </wgt>
<wgt id='1707'> +7.7079389e+01 </wgt>
<wgt id='1708'> +7.7439766e+01 </wgt>
<wgt id='1709'> +7.6564401e+01 </wgt>
<wgt id='1710'> +7.6993280e+01 </wgt>
<wgt id='1711'> +7.7516540e+01 </wgt>
<wgt id='1712'> +7.7439442e+01 </wgt>
<wgt id='1713'> +7.7507937e+01 </wgt>
<wgt id='1714'> +7.7071869e+01 </wgt>
<wgt id='1715'> +7.7195477e+01 </wgt>
<wgt id='1716'> +7.7420178e+01 </wgt>
<wgt id='1717'> +7.7433641e+01 </wgt>
<wgt id='1718'> +7.7342281e+01 </wgt>
<wgt id='1719'> +7.7479111e+01 </wgt>
<wgt id='1720'> +7.7299852e+01 </wgt>
<wgt id='1721'> +7.7372735e+01 </wgt>
<wgt id='1722'> +7.6724025e+01 </wgt>
<wgt id='1723'> +7.7533018e+01 </wgt>
<wgt id='1724'> +7.7708169e+01 </wgt>
<wgt id='1725'> +7.6352586e+01 </wgt>
<wgt id='1726'> +7.7346300e+01 </wgt>
<wgt id='1727'> +7.7360049e+01 </wgt>
<wgt id='1728'> +7.7451297e+01 </wgt>
<wgt id='1729'> +7.7549366e+01 </wgt>
<wgt id='1730'> +7.7529822e+01 </wgt>
<wgt id='1731'> +7.7693983e+01 </wgt>
<wgt id='1732'> +7.7582796e+01 </wgt>
<wgt id='1733'> +7.7600182e+01 </wgt>
<wgt id='1734'> +7.7576471e+01 </wgt>
<wgt id='1735'> +7.7718037e+01 </wgt>
<wgt id='1736'> +7.5607058e+01 </wgt>
<wgt id='1737'> +7.8944692e+01 </wgt>
<wgt id='1738'> +8.8393760e+01 </wgt>
<wgt id='1739'> +8.8472213e+01 </wgt>
<wgt id='1740'> +8.8315579e+01 </wgt>
<wgt id='1741'> +8.8183685e+01 </wgt>
<wgt id='1742'> +8.8603881e+01 </wgt>
<wgt id='1743'> +8.8208396e+01 </wgt>
<wgt id='1744'> +8.8578189e+01 </wgt>
<wgt id='1745'> +8.8234352e+01 </wgt>
<wgt id='1746'> +8.8548544e+01 </wgt>
<wgt id='1747'> +8.8962547e+01 </wgt>
<wgt id='1748'> +8.7822895e+01 </wgt>
<wgt id='1749'> +8.8525240e+01 </wgt>
<wgt id='1750'> +8.8267507e+01 </wgt>
<wgt id='1751'> +8.7964224e+01 </wgt>
<wgt id='1752'> +8.8819556e+01 </wgt>
<wgt id='1753'> +8.8029460e+01 </wgt>
<wgt id='1754'> +8.8745930e+01 </wgt>
<wgt id='1755'> +8.8013239e+01 </wgt>
<wgt id='1756'> +8.8782421e+01 </wgt>
<wgt id='1757'> +8.8427839e+01 </wgt>
<wgt id='1758'> +8.8356383e+01 </wgt>
<wgt id='1759'> +8.8773402e+01 </wgt>
<wgt id='1760'> +8.8062728e+01 </wgt>
<wgt id='1761'> +8.7591148e+01 </wgt>
<wgt id='1762'> +8.9180228e+01 </wgt>
<wgt id='1763'> +8.9287730e+01 </wgt>
<wgt id='1764'> +8.7488959e+01 </wgt>
<wgt id='1765'> +8.7881206e+01 </wgt>
<wgt id='1766'> +8.8552644e+01 </wgt>
<wgt id='1767'> +8.8393760e+01 </wgt>
<wgt id='1768'> +8.8295601e+01 </wgt>
<wgt id='1769'> +8.8426674e+01 </wgt>
<wgt id='1770'> +8.8269381e+01 </wgt>
<wgt id='1771'> +8.8410284e+01 </wgt>
<wgt id='1772'> +8.9139191e+01 </wgt>
<wgt id='1773'> +8.7940529e+01 </wgt>
<wgt id='1774'> +8.8349698e+01 </wgt>
<wgt id='1775'> +8.8392199e+01 </wgt>
<wgt id='1776'> +8.8180244e+01 </wgt>
<wgt id='1777'> +8.8553805e+01 </wgt>
<wgt id='1778'> +8.8257347e+01 </wgt>
<wgt id='1779'> +8.8624311e+01 </wgt>
<wgt id='1780'> +8.8951363e+01 </wgt>
<wgt id='1781'> +9.0858977e+01 </wgt>
<wgt id='1782'> +9.0873032e+01 </wgt>
<wgt id='1783'> +9.0811949e+01 </wgt>
<wgt id='1784'> +9.0734138e+01 </wgt>
<wgt id='1785'> +9.0950855e+01 </wgt>
<wgt id='1786'> +9.0597632e+01 </wgt>
<wgt id='1787'> +9.1086017e+01 </wgt>
<wgt id='1788'> +9.0476571e+01 </wgt>
<wgt id='1789'> +9.1205488e+01 </wgt>
<wgt id='1790'> +9.1208494e+01 </wgt>
<wgt id='1791'> +9.0475503e+01 </wgt>
<wgt id='1792'> +9.1088196e+01 </wgt>
<wgt id='1793'> +9.0596116e+01 </wgt>
<wgt id='1794'> +9.0335795e+01 </wgt>
<wgt id='1795'> +9.1346670e+01 </wgt>
<wgt id='1796'> +9.0631792e+01 </wgt>
<wgt id='1797'> +9.1028642e+01 </wgt>
<wgt id='1798'> +9.1174934e+01 </wgt>
<wgt id='1799'> +9.0511393e+01 </wgt>
<wgt id='1800'> +9.1047401e+01 </wgt>
<wgt id='1801'> +9.0645737e+01 </wgt>
<wgt id='1802'> +9.0269322e+01 </wgt>
<wgt id='1803'> +9.1476663e+01 </wgt>
<wgt id='1804'> +9.1400108e+01 </wgt>
<wgt id='1805'> +9.0322328e+01 </wgt>
<wgt id='1806'> +9.0023421e+01 </wgt>
<wgt id='1807'> +9.1558414e+01 </wgt>
<wgt id='1808'> +8.9995639e+01 </wgt>
<wgt id='1809'> +9.1197015e+01 </wgt>
<wgt id='1810'> +9.0822937e+01 </wgt>
<wgt id='1811'> +9.0748178e+01 </wgt>
<wgt id='1812'> +9.0699493e+01 </wgt>
<wgt id='1813'> +9.0660430e+01 </wgt>
<wgt id='1814'> +9.0800019e+01 </wgt>
<wgt id='1815'> +9.1462974e+01 </wgt>
<wgt id='1816'> +8.8869571e+01 </wgt>
<wgt id='1817'> +9.0785102e+01 </wgt>
<wgt id='1818'> +9.1174673e+01 </wgt>
<wgt id='1819'> +8.9022255e+01 </wgt>
<wgt id='1820'> +9.0997687e+01 </wgt>
<wgt id='1821'> +8.8791648e+01 </wgt>
<wgt id='1822'> +9.2518058e+01 </wgt>
<wgt id='1823'> +8.9082195e+01 </wgt>
<wgt id='1824'> +7.7477455e+01 </wgt>
<wgt id='1825'> +7.7468535e+01 </wgt>
<wgt id='1826'> +7.7459572e+01 </wgt>
<wgt id='1827'> +7.7450642e+01 </wgt>
<wgt id='1828'> +7.7441811e+01 </wgt>
<wgt id='1829'> +7.7432927e+01 </wgt>
<wgt id='1830'> +7.7423980e+01 </wgt>
<wgt id='1831'> +7.7415061e+01 </wgt>
<wgt id='1832'> +7.7406124e+01 </wgt>
<wgt id='1833'> +7.7397275e+01 </wgt>
<wgt id='1834'> +7.7388342e+01 </wgt>
<wgt id='1835'> +7.7379539e+01 </wgt>
<wgt id='1836'> +7.7370571e+01 </wgt>
<wgt id='1837'> +7.7361697e+01 </wgt>
<wgt id='1838'> +7.7352781e+01 </wgt>
<wgt id='1839'> +7.7343907e+01 </wgt>
<wgt id='1840'> +7.7334958e+01 </wgt>
<wgt id='1841'> +7.7326109e+01 </wgt>
<wgt id='1842'> +7.7317111e+01 </wgt>
<wgt id='1843'> +7.7308363e+01 </wgt>
<wgt id='1844'> +7.7299427e+01 </wgt>
<wgt id='1845'> +7.7290530e+01 </wgt>
<wgt id='1846'> +7.7281645e+01 </wgt>
<wgt id='1847'> +7.7272705e+01 </wgt>
<wgt id='1848'> +7.7263765e+01 </wgt>
<wgt id='1849'> +7.7254919e+01 </wgt>
<wgt id='1850'> +7.7246085e+01 </wgt>
<wgt id='1851'> +7.7237188e+01 </wgt>
<wgt id='1852'> +7.7228309e+01 </wgt>
<wgt id='1853'> +7.7219317e+01 </wgt>
<wgt id='1854'> +7.7210471e+01 </wgt>
<wgt id='1855'> +7.7007687e+01 </wgt>
<wgt id='1856'> +7.7229230e+01 </wgt>
<wgt id='1857'> +7.6625795e+01 </wgt>
<wgt id='1858'> +7.7293512e+01 </wgt>
<wgt id='1859'> +7.7283108e+01 </wgt>
<wgt id='1860'> +7.7143083e+01 </wgt>
<wgt id='1861'> +7.7095896e+01 </wgt>
<wgt id='1862'> +7.6902721e+01 </wgt>
<wgt id='1863'> +7.7059671e+01 </wgt>
<wgt id='1864'> +7.7140496e+01 </wgt>
<wgt id='1865'> +7.7322798e+01 </wgt>
<wgt id='1866'> +7.6820052e+01 </wgt>
<wgt id='1867'> +7.6857683e+01 </wgt>
<wgt id='1868'> +7.7288203e+01 </wgt>
<wgt id='1869'> +7.6777390e+01 </wgt>
<wgt id='1870'> +7.6697248e+01 </wgt>
<wgt id='1871'> +7.6795763e+01 </wgt>
<wgt id='1872'> +7.7102984e+01 </wgt>
<wgt id='1873'> +7.7212631e+01 </wgt>
<wgt id='1874'> +7.6290105e+01 </wgt>
<wgt id='1875'> +7.7105976e+01 </wgt>
<wgt id='1876'> +7.7358933e+01 </wgt>
<wgt id='1877'> +7.6630064e+01 </wgt>
<wgt id='1878'> +7.7442151e+01 </wgt>
<wgt id='1879'> +7.7789517e+01 </wgt>
<wgt id='1880'> +7.6974830e+01 </wgt>
<wgt id='1881'> +7.6901934e+01 </wgt>
<wgt id='1882'> +7.7169924e+01 </wgt>
<wgt id='1883'> +7.6920028e+01 </wgt>
<wgt id='1884'> +7.6938849e+01 </wgt>
<wgt id='1885'> +7.7165364e+01 </wgt>
<wgt id='1886'> +7.7479698e+01 </wgt>
<wgt id='1887'> +7.7375409e+01 </wgt>
<wgt id='1888'> +7.7723105e+01 </wgt>
<wgt id='1889'> +7.7436755e+01 </wgt>
<wgt id='1890'> +7.6636541e+01 </wgt>
<wgt id='1891'> +7.7167238e+01 </wgt>
<wgt id='1892'> +7.6830817e+01 </wgt>
<wgt id='1893'> +7.7093402e+01 </wgt>
<wgt id='1894'> +7.6966047e+01 </wgt>
<wgt id='1895'> +7.6953743e+01 </wgt>
<wgt id='1896'> +7.7115401e+01 </wgt>
<wgt id='1897'> +7.7158473e+01 </wgt>
<wgt id='1898'> +7.6660585e+01 </wgt>
<wgt id='1899'> +7.7077540e+01 </wgt>
<wgt id='1900'> +7.6796162e+01 </wgt>
<wgt id='1901'> +7.7117412e+01 </wgt>
<wgt id='1902'> +7.6974186e+01 </wgt>
<wgt id='1903'> +7.7331001e+01 </wgt>
<wgt id='1904'> +7.6908307e+01 </wgt>
<wgt id='1905'> +7.7125586e+01 </wgt>
<wgt id='1906'> +7.7001760e+01 </wgt>
<wgt id='1907'> +7.6836147e+01 </wgt>
<wgt id='1908'> +7.7078121e+01 </wgt>
<wgt id='1909'> +7.6985987e+01 </wgt>
<wgt id='1910'> +7.7066545e+01 </wgt>
<wgt id='1911'> +7.6965174e+01 </wgt>
<wgt id='1912'> +7.6923413e+01 </wgt>
<wgt id='1913'> +7.6924480e+01 </wgt>
<wgt id='1914'> +7.7012160e+01 </wgt>
<wgt id='1915'> +7.6891030e+01 </wgt>
<wgt id='1916'> +7.7088119e+01 </wgt>
<wgt id='1917'> +7.6980190e+01 </wgt>
<wgt id='1918'> +7.7002628e+01 </wgt>
<wgt id='1919'> +7.6839348e+01 </wgt>
<wgt id='1920'> +7.7100424e+01 </wgt>
<wgt id='1921'> +7.7066408e+01 </wgt>
<wgt id='1922'> +7.7059766e+01 </wgt>
<wgt id='1923'> +7.7069833e+01 </wgt>
<wgt id='1924'> +7.7054843e+01 </wgt>
<wgt id='1925'> +7.7060462e+01 </wgt>
<wgt id='1926'> +7.7088710e+01 </wgt>
<wgt id='1927'> +7.7015142e+01 </wgt>
<wgt id='1928'> +7.7049406e+01 </wgt>
<wgt id='1929'> +7.7011304e+01 </wgt>
<wgt id='1930'> +7.6978792e+01 </wgt>
<wgt id='1931'> +7.6914763e+01 </wgt>
<wgt id='1932'> +7.7038563e+01 </wgt>
<wgt id='1933'> +7.6984389e+01 </wgt>
<wgt id='1934'> +7.7021079e+01 </wgt>
<wgt id='1935'> +7.7075717e+01 </wgt>
<wgt id='1936'> +7.7001529e+01 </wgt>
<wgt id='1937'> +7.7037117e+01 </wgt>
<wgt id='1938'> +7.7005750e+01 </wgt>
<wgt id='1939'> +7.7016870e+01 </wgt>
<wgt id='1940'> +7.6988517e+01 </wgt>
<wgt id='1941'> +7.7076518e+01 </wgt>
<wgt id='1942'> +7.6953270e+01 </wgt>
<wgt id='1943'> +7.7002108e+01 </wgt>
<wgt id='1944'> +7.7017025e+01 </wgt>
<wgt id='1945'> +7.7047499e+01 </wgt>
<wgt id='1946'> +7.6942354e+01 </wgt>
<wgt id='1947'> +7.7000445e+01 </wgt>
<wgt id='1948'> +7.6970929e+01 </wgt>
<wgt id='1949'> +7.7031976e+01 </wgt>
<wgt id='1950'> +7.6978546e+01 </wgt>
<wgt id='1951'> +7.6973915e+01 </wgt>
<wgt id='1952'> +7.7014650e+01 </wgt>
<wgt id='1953'> +7.7033721e+01 </wgt>
<wgt id='1954'> +7.7015313e+01 </wgt>
<wgt id='1955'> +7.6991799e+01 </wgt>
<wgt id='1956'> +7.7007670e+01 </wgt>
<wgt id='1957'> +7.7007777e+01 </wgt>
<wgt id='1958'> +7.7007710e+01 </wgt>
<wgt id='1959'> +7.7007713e+01 </wgt>
<wgt id='1960'> +7.7007744e+01 </wgt>
<wgt id='1961'> +7.7007696e+01 </wgt>
<wgt id='1962'> +7.7007827e+01 </wgt>
</rwgt>
</event>
<event npLO=" -1 " npNLO=" 1 ">
 8      1 -1.5146096e+02 2.11776160e+01 7.54677110e-03 1.45780480e-01
        2 -1    0    0  501    0 +0.0000000000e+00 +0.0000000000e+00 +8.3414289000e+02 8.3414289000e+02 0.0000000000e+00 0.0000e+00 9.0000e+00
        1 -1    0    0  502    0 +0.0000000000e+00 +0.0000000000e+00 -2.2919244000e+02 2.2919244000e+02 0.0000000000e+00 0.0000e+00 9.0000e+00
       23  2    1    2    0    0 +2.5946838000e+01 -1.7981590000e+00 -1.4749326000e+02 1.7489970000e+02 9.0328132000e+01 0.0000e+00 0.0000e+00
       11  1    3    3    0    0 +4.9687038000e+01 +2.9883670000e+00 -1.0295193000e+02 1.1435398000e+02 0.0000000000e+00 0.0000e+00 9.0000e+00
      -11  1    3    3    0    0 -1.1349335000e+01 -1.2948895000e+01 -4.2130669000e+01 4.5513455000e+01 0.0000000000e+00 0.0000e+00 9.0000e+00
       22  1    3    3    0    0 -1.2390865000e+01 +8.1623689000e+00 -2.4106615000e+00 1.5032268000e+01 0.0000000000e+00 0.0000e+00 9.0000e+00
        1  1    1    2  501    0 -2.4938060000e+01 -8.4744339000e+00 -6.5411569000e+01 7.0515220000e+01 0.0000000000e+00 0.0000e+00 9.0000e+00
        2  1    1    2  502    0 -1.0087783000e+00 +1.0272593000e+01 +8.1785527000e+02 8.1792041000e+02 0.0000000000e+00 0.0000e+00 9.0000e+00
#aMCatNLO 2  0  0  1  6 0.10322753E+02 0.00000000E+00 -9  7  0 0.00000000E+00 0.00000000E+00 0.00000000E+00 0.00000000E+00 0.00000000E+00
<rwgt>
<wgt id='1001'> -1.5146000e+02 </wgt>
<wgt id='1002'> -1.5146000e+02 </wgt>
<wgt id='1003'> -1.5056000e+02 </wgt>
<wgt id='1004'> -1.5364000e+02 </wgt>
<wgt id='1005'> -1.5430000e+02 </wgt>
<wgt id='1006'> -1.5483000e+02 </wgt>
<wgt id='1007'> -1.5037000e+02 </wgt>
<wgt id='1008'> -1.5027000e+02 </wgt>
<wgt id='1009'> -1.5748000e+02 </wgt>
<wgt id='1010'> -1.4662000e+02 </wgt>
<wgt id='1011'> -1.4991000e+02 </wgt>
<wgt id='1012'> -1.5779000e+02 </wgt>
<wgt id='1013'> -1.5907000e+02 </wgt>
<wgt id='1014'> -1.5299000e+02 </wgt>
<wgt id='1015'> -1.5574000e+02 </wgt>
<wgt id='1016'> -1.5262000e+02 </wgt>
<wgt id='1017'> -1.5091000e+02 </wgt>
<wgt id='1018'> -1.4297000e+02 </wgt>
<wgt id='1019'> -1.4757000e+02 </wgt>
<wgt id='1020'> -1.4187000e+02 </wgt>
<wgt id='1021'> -1.5400000e+02 </wgt>
<wgt id='1022'> -1.4122000e+02 </wgt>
<wgt id='1023'> -1.5999000e+02 </wgt>
<wgt id='1024'> -1.5041000e+02 </wgt>
<wgt id='1025'> -1.5541000e+02 </wgt>
<wgt id='1026'> -1.4962000e+02 </wgt>
<wgt id='1027'> -1.5172000e+02 </wgt>
<wgt id='1028'> -1.5057000e+02 </wgt>
<wgt id='1029'> -1.4682000e+02 </wgt>
<wgt id='1030'> -1.5194000e+02 </wgt>
<wgt id='1031'> -1.4810000e+02 </wgt>
<wgt id='1032'> -1.4917000e+02 </wgt>
<wgt id='1033'> -1.4989000e+02 </wgt>
<wgt id='1034'> -1.5524000e+02 </wgt>
<wgt id='1035'> -1.5305000e+02 </wgt>
<wgt id='1036'> -1.5108000e+02 </wgt>
<wgt id='1037'> -1.5134000e+02 </wgt>
<wgt id='1038'> -1.4796000e+02 </wgt>
<wgt id='1039'> -1.4739000e+02 </wgt>
<wgt id='1040'> -1.5024000e+02 </wgt>
<wgt id='1041'> -1.4746000e+02 </wgt>
<wgt id='1042'> -1.5087000e+02 </wgt>
<wgt id='1043'> -1.5998000e+02 </wgt>
<wgt id='1044'> -1.5624000e+02 </wgt>
<wgt id='1045'> -1.5246000e+02 </wgt>
<wgt id='1046'> -1.4860000e+02 </wgt>
<wgt id='1047'> -1.5310000e+02 </wgt>
<wgt id='1048'> -1.5314000e+02 </wgt>
<wgt id='1049'> -1.5025000e+02 </wgt>
<wgt id='1050'> -1.5160000e+02 </wgt>
<wgt id='1051'> -1.4912000e+02 </wgt>
<wgt id='1052'> -1.5450000e+02 </wgt>
<wgt id='1053'> -1.5555000e+02 </wgt>
<wgt id='1054'> -1.5197000e+02 </wgt>
<wgt id='1055'> -1.5430000e+02 </wgt>
<wgt id='1056'> -1.5471000e+02 </wgt>
<wgt id='1057'> -1.5309000e+02 </wgt>
<wgt id='1058'> -1.4842000e+02 </wgt>
<wgt id='1059'> -1.5041000e+02 </wgt>
<wgt id='1060'> -1.5403000e+02 </wgt>
<wgt id='1061'> -1.4555000e+02 </wgt>
<wgt id='1062'> -1.5220000e+02 </wgt>
<wgt id='1063'> -1.5052000e+02 </wgt>
<wgt id='1064'> -1.5177000e+02 </wgt>
<wgt id='1065'> -1.5581000e+02 </wgt>
<wgt id='1066'> -1.4232000e+02 </wgt>
<wgt id='1067'> -1.5348000e+02 </wgt>
<wgt id='1068'> -1.4693000e+02 </wgt>
<wgt id='1069'> -1.5585000e+02 </wgt>
<wgt id='1070'> -1.5413000e+02 </wgt>
<wgt id='1071'> -1.5230000e+02 </wgt>
<wgt id='1072'> -1.4763000e+02 </wgt>
<wgt id='1073'> -1.5300000e+02 </wgt>
<wgt id='1074'> -1.5006000e+02 </wgt>
<wgt id='1075'> -1.5520000e+02 </wgt>
<wgt id='1076'> -1.5417000e+02 </wgt>
<wgt id='1077'> -1.5528000e+02 </wgt>
<wgt id='1078'> -1.5136000e+02 </wgt>
<wgt id='1079'> -1.5183000e+02 </wgt>
<wgt id='1080'> -1.5357000e+02 </wgt>
<wgt id='1081'> -1.5339000e+02 </wgt>
<wgt id='1082'> -1.4913000e+02 </wgt>
<wgt id='1083'> -1.5270000e+02 </wgt>
<wgt id='1084'> -1.5717000e+02 </wgt>
<wgt id='1085'> -1.4368000e+02 </wgt>
<wgt id='1086'> -1.5151000e+02 </wgt>
<wgt id='1087'> -1.5163000e+02 </wgt>
<wgt id='1088'> -1.5161000e+02 </wgt>
<wgt id='1089'> -1.5407000e+02 </wgt>
<wgt id='1090'> -1.5745000e+02 </wgt>
<wgt id='1091'> -1.4700000e+02 </wgt>
<wgt id='1092'> -1.5249000e+02 </wgt>
<wgt id='1093'> -1.5484000e+02 </wgt>
<wgt id='1094'> -1.4925000e+02 </wgt>
<wgt id='1095'> -1.4692000e+02 </wgt>
<wgt id='1096'> -1.5260000e+02 </wgt>
<wgt id='1097'> -1.4336000e+02 </wgt>
<wgt id='1098'> -1.5214000e+02 </wgt>
<wgt id='1099'> -1.5056000e+02 </wgt>
<wgt id='1100'> -1.5453000e+02 </wgt>
<wgt id='1101'> -1.5200000e+02 </wgt>
<wgt id='1102'> -1.4208000e+02 </wgt>
<wgt id='1103'> -1.4840000e+02 </wgt>
<wgt id='1104'> -1.5504000e+02 </wgt>
<wgt id='1105'> -1.5146096e+02 </wgt>
<wgt id='1106'> -5.9328387e+01 </wgt>
<wgt id='1107'> -1.0017136e+02 </wgt>
<wgt id='1108'> -7.4400012e+01 </wgt>
<wgt id='1109'> -5.8286079e+01 </wgt>
<wgt id='1110'> -9.8411508e+01 </wgt>
<wgt id='1111'> -7.6746830e+01 </wgt>
<wgt id='1112'> -6.0124612e+01 </wgt>
<wgt id='1113'> -1.0151573e+02 </wgt>
<wgt id='1114'> -7.9756031e+01 </wgt>
<wgt id='1115'> -8.4386612e+01 </wgt>
<wgt id='1116'> -8.2715067e+01 </wgt>
<wgt id='1117'> -7.8460019e+01 </wgt>
<wgt id='1118'> -7.5517564e+01 </wgt>
<wgt id='1119'> -7.8423144e+01 </wgt>
<wgt id='1120'> -8.1295854e+01 </wgt>
<wgt id='1121'> -8.2723919e+01 </wgt>
<wgt id='1122'> -8.0203308e+01 </wgt>
<wgt id='1123'> -7.9489761e+01 </wgt>
<wgt id='1124'> -7.4256474e+01 </wgt>
<wgt id='1125'> -7.7901628e+01 </wgt>
<wgt id='1126'> -7.8341542e+01 </wgt>
<wgt id='1127'> -7.8172856e+01 </wgt>
<wgt id='1128'> -8.2553822e+01 </wgt>
<wgt id='1129'> -8.2199867e+01 </wgt>
<wgt id='1130'> -7.9566915e+01 </wgt>
<wgt id='1131'> -8.0375561e+01 </wgt>
<wgt id='1132'> -7.9811285e+01 </wgt>
<wgt id='1133'> -8.0864389e+01 </wgt>
<wgt id='1134'> -7.7366191e+01 </wgt>
<wgt id='1135'> -7.9173074e+01 </wgt>
<wgt id='1136'> -8.1112243e+01 </wgt>
<wgt id='1137'> -8.3722352e+01 </wgt>
<wgt id='1138'> -7.9519955e+01 </wgt>
<wgt id='1139'> -8.1504890e+01 </wgt>
<wgt id='1140'> -8.2488413e+01 </wgt>
<wgt id='1141'> -7.7338265e+01 </wgt>
<wgt id='1142'> -8.0808056e+01 </wgt>
<wgt id='1143'> -7.9807187e+01 </wgt>
<wgt id='1144'> -8.0614725e+01 </wgt>
<wgt id='1145'> -7.9399812e+01 </wgt>
<wgt id='1146'> -7.9266611e+01 </wgt>
<wgt id='1147'> -8.2220676e+01 </wgt>
<wgt id='1148'> -7.7028113e+01 </wgt>
<wgt id='1149'> -7.8553518e+01 </wgt>
<wgt id='1150'> -8.1176604e+01 </wgt>
<wgt id='1151'> -8.0872591e+01 </wgt>
<wgt id='1152'> -7.8836064e+01 </wgt>
<wgt id='1153'> -7.9394195e+01 </wgt>
<wgt id='1154'> -7.9081614e+01 </wgt>
<wgt id='1155'> -7.8159934e+01 </wgt>
<wgt id='1156'> -8.0003877e+01 </wgt>
<wgt id='1157'> -7.8460067e+01 </wgt>
<wgt id='1158'> -7.9390797e+01 </wgt>
<wgt id='1159'> -8.2258951e+01 </wgt>
<wgt id='1160'> -7.9657704e+01 </wgt>
<wgt id='1161'> -7.9120504e+01 </wgt>
<wgt id='1162'> -7.8705196e+01 </wgt>
<wgt id='1163'> -8.2435249e+01 </wgt>
<wgt id='1164'> -7.8213200e+01 </wgt>
<wgt id='1165'> -8.1386678e+01 </wgt>
<wgt id='1166'> -8.0509688e+01 </wgt>
<wgt id='1167'> -7.9544838e+01 </wgt>
<wgt id='1168'> -8.2009230e+01 </wgt>
<wgt id='1169'> -8.0310354e+01 </wgt>
<wgt id='1170'> -8.0947092e+01 </wgt>
<wgt id='1171'> -8.3504371e+01 </wgt>
<wgt id='1172'> -8.1409250e+01 </wgt>
<wgt id='1173'> -8.0964647e+01 </wgt>
<wgt id='1174'> -8.2537992e+01 </wgt>
<wgt id='1175'> -7.8279431e+01 </wgt>
<wgt id='1176'> -8.1057123e+01 </wgt>
<wgt id='1177'> -7.7399543e+01 </wgt>
<wgt id='1178'> -7.9317407e+01 </wgt>
<wgt id='1179'> -8.1249733e+01 </wgt>
<wgt id='1180'> -8.4133855e+01 </wgt>
<wgt id='1181'> -8.1475357e+01 </wgt>
<wgt id='1182'> -8.0861646e+01 </wgt>
<wgt id='1183'> -8.0075927e+01 </wgt>
<wgt id='1184'> -7.8621295e+01 </wgt>
<wgt id='1185'> -7.9370355e+01 </wgt>
<wgt id='1186'> -8.2375649e+01 </wgt>
<wgt id='1187'> -7.6014451e+01 </wgt>
<wgt id='1188'> -7.6437086e+01 </wgt>
<wgt id='1189'> -7.8408179e+01 </wgt>
<wgt id='1190'> -8.0562971e+01 </wgt>
<wgt id='1191'> -7.5715236e+01 </wgt>
<wgt id='1192'> -8.1647957e+01 </wgt>
<wgt id='1193'> -7.8817445e+01 </wgt>
<wgt id='1194'> -7.6576191e+01 </wgt>
<wgt id='1195'> -7.8319740e+01 </wgt>
<wgt id='1196'> -7.9566915e+01 </wgt>
<wgt id='1197'> -7.4071489e+01 </wgt>
<wgt id='1198'> -7.9001347e+01 </wgt>
<wgt id='1199'> -7.9080351e+01 </wgt>
<wgt id='1200'> -8.2311533e+01 </wgt>
<wgt id='1201'> -8.1126127e+01 </wgt>
<wgt id='1202'> -7.7154768e+01 </wgt>
<wgt id='1203'> -7.0894458e+01 </wgt>
<wgt id='1204'> -7.9447205e+01 </wgt>
<wgt id='1205'> -8.2693369e+01 </wgt>
<wgt id='1206'> -7.8663904e+01 </wgt>
<wgt id='1207'> -7.8805113e+01 </wgt>
<wgt id='1208'> -8.1936303e+01 </wgt>
<wgt id='1209'> -7.9398855e+01 </wgt>
<wgt id='1210'> -8.1157161e+01 </wgt>
<wgt id='1211'> -7.8636848e+01 </wgt>
<wgt id='1212'> -7.9532064e+01 </wgt>
<wgt id='1213'> -7.9628343e+01 </wgt>
<wgt id='1214'> -8.0650624e+01 </wgt>
<wgt id='1215'> -7.7215213e+01 </wgt>
<wgt id='1216'> -7.8216366e+01 </wgt>
<wgt id='1217'> -7.8221911e+01 </wgt>
<wgt id='1218'> -7.8271933e+01 </wgt>
<wgt id='1219'> -7.8277811e+01 </wgt>
<wgt id='1220'> -7.8037990e+01 </wgt>
<wgt id='1221'> -7.8374789e+01 </wgt>
<wgt id='1222'> -7.8237172e+01 </wgt>
<wgt id='1223'> -7.8440607e+01 </wgt>
<wgt id='1224'> -7.8362150e+01 </wgt>
<wgt id='1225'> -7.8480512e+01 </wgt>
<wgt id='1226'> -7.8233658e+01 </wgt>
<wgt id='1227'> -7.8090770e+01 </wgt>
<wgt id='1228'> -7.8000651e+01 </wgt>
<wgt id='1229'> -7.8314159e+01 </wgt>
<wgt id='1230'> -7.8369376e+01 </wgt>
<wgt id='1231'> -7.8010895e+01 </wgt>
<wgt id='1232'> -7.8383637e+01 </wgt>
<wgt id='1233'> -7.8058703e+01 </wgt>
<wgt id='1234'> -7.8211104e+01 </wgt>
<wgt id='1235'> -7.8076370e+01 </wgt>
<wgt id='1236'> -7.7724623e+01 </wgt>
<wgt id='1237'> -7.8685224e+01 </wgt>
<wgt id='1238'> -7.8322071e+01 </wgt>
<wgt id='1239'> -7.8435105e+01 </wgt>
<wgt id='1240'> -7.8663940e+01 </wgt>
<wgt id='1241'> -7.7740328e+01 </wgt>
<wgt id='1242'> -7.8272981e+01 </wgt>
<wgt id='1243'> -7.7795208e+01 </wgt>
<wgt id='1244'> -7.8410914e+01 </wgt>
<wgt id='1245'> -7.9052738e+01 </wgt>
<wgt id='1246'> -7.7366814e+01 </wgt>
<wgt id='1247'> -7.7242394e+01 </wgt>
<wgt id='1248'> -7.8746154e+01 </wgt>
<wgt id='1249'> -7.8170878e+01 </wgt>
<wgt id='1250'> -7.7964967e+01 </wgt>
<wgt id='1251'> -7.8499894e+01 </wgt>
<wgt id='1252'> -7.8309445e+01 </wgt>
<wgt id='1253'> -7.7759906e+01 </wgt>
<wgt id='1254'> -7.8162291e+01 </wgt>
<wgt id='1255'> -7.8372620e+01 </wgt>
<wgt id='1256'> -7.8167627e+01 </wgt>
<wgt id='1257'> -7.8511433e+01 </wgt>
<wgt id='1258'> -7.8100000e+01 </wgt>
<wgt id='1259'> -7.7927429e+01 </wgt>
<wgt id='1260'> -7.8110312e+01 </wgt>
<wgt id='1261'> -7.8083961e+01 </wgt>
<wgt id='1262'> -7.8272744e+01 </wgt>
<wgt id='1263'> -7.8435339e+01 </wgt>
<wgt id='1264'> -7.8469861e+01 </wgt>
<wgt id='1265'> -7.8192409e+01 </wgt>
<wgt id='1266'> -7.8296933e+01 </wgt>
<wgt id='1267'> -7.8184608e+01 </wgt>
<wgt id='1268'> -7.8168364e+01 </wgt>
<wgt id='1269'> -7.8072060e+01 </wgt>
<wgt id='1270'> -7.8218885e+01 </wgt>
<wgt id='1271'> -7.8299359e+01 </wgt>
<wgt id='1272'> -7.8090337e+01 </wgt>
<wgt id='1273'> -7.8270726e+01 </wgt>
<wgt id='1274'> -7.8259168e+01 </wgt>
<wgt id='1275'> -7.8234467e+01 </wgt>
<wgt id='1276'> -7.8025989e+01 </wgt>
<wgt id='1277'> -7.8262897e+01 </wgt>
<wgt id='1278'> -7.8206812e+01 </wgt>
<wgt id='1279'> -7.8411329e+01 </wgt>
<wgt id='1280'> -7.8091605e+01 </wgt>
<wgt id='1281'> -7.8147386e+01 </wgt>
<wgt id='1282'> -7.8243785e+01 </wgt>
<wgt id='1283'> -7.7996869e+01 </wgt>
<wgt id='1284'> -7.8302614e+01 </wgt>
<wgt id='1285'> -7.8120076e+01 </wgt>
<wgt id='1286'> -7.8196048e+01 </wgt>
<wgt id='1287'> -7.8262643e+01 </wgt>
<wgt id='1288'> -7.8331280e+01 </wgt>
<wgt id='1289'> -7.8206863e+01 </wgt>
<wgt id='1290'> -7.8399459e+01 </wgt>
<wgt id='1291'> -7.8216318e+01 </wgt>
<wgt id='1292'> -7.8277990e+01 </wgt>
<wgt id='1293'> -7.8218545e+01 </wgt>
<wgt id='1294'> -7.8305318e+01 </wgt>
<wgt id='1295'> -7.8233066e+01 </wgt>
<wgt id='1296'> -7.8255964e+01 </wgt>
<wgt id='1297'> -7.8371599e+01 </wgt>
<wgt id='1298'> -7.8150443e+01 </wgt>
<wgt id='1299'> -7.8222371e+01 </wgt>
<wgt id='1300'> -7.8165834e+01 </wgt>
<wgt id='1301'> -7.8184177e+01 </wgt>
<wgt id='1302'> -7.8237030e+01 </wgt>
<wgt id='1303'> -7.8176088e+01 </wgt>
<wgt id='1304'> -7.8193231e+01 </wgt>
<wgt id='1305'> -7.8251229e+01 </wgt>
<wgt id='1306'> -7.8272617e+01 </wgt>
<wgt id='1307'> -7.8285251e+01 </wgt>
<wgt id='1308'> -7.8295609e+01 </wgt>
<wgt id='1309'> -7.8207666e+01 </wgt>
<wgt id='1310'> -7.8188104e+01 </wgt>
<wgt id='1311'> -7.8258945e+01 </wgt>
<wgt id='1312'> -7.8093250e+01 </wgt>
<wgt id='1313'> -7.8197884e+01 </wgt>
<wgt id='1314'> -7.8218080e+01 </wgt>
<wgt id='1315'> -7.8183571e+01 </wgt>
<wgt id='1316'> -7.8219146e+01 </wgt>
<wgt id='1317'> -7.4710680e+01 </wgt>
<wgt id='1318'> -8.1920999e+01 </wgt>
<wgt id='1319'> -7.1274117e+01 </wgt>
<wgt id='1320'> -7.8924484e+01 </wgt>
<wgt id='1321'> -8.0429568e+01 </wgt>
<wgt id='1322'> -7.9245070e+01 </wgt>
<wgt id='1323'> -7.8820258e+01 </wgt>
<wgt id='1324'> -7.8635702e+01 </wgt>
<wgt id='1325'> -7.8817678e+01 </wgt>
<wgt id='1326'> -7.9389880e+01 </wgt>
<wgt id='1327'> -7.8075897e+01 </wgt>
<wgt id='1328'> -7.9733907e+01 </wgt>
<wgt id='1329'> -7.8554911e+01 </wgt>
<wgt id='1330'> -7.9324744e+01 </wgt>
<wgt id='1331'> -7.9657100e+01 </wgt>
<wgt id='1332'> -7.8707236e+01 </wgt>
<wgt id='1333'> -7.8680004e+01 </wgt>
<wgt id='1334'> -7.8565782e+01 </wgt>
<wgt id='1335'> -7.9382353e+01 </wgt>
<wgt id='1336'> -7.7680000e+01 </wgt>
<wgt id='1337'> -8.0955435e+01 </wgt>
<wgt id='1338'> -7.6601556e+01 </wgt>
<wgt id='1339'> -7.9936320e+01 </wgt>
<wgt id='1340'> -7.7887774e+01 </wgt>
<wgt id='1341'> -7.8994658e+01 </wgt>
<wgt id='1342'> -7.8673603e+01 </wgt>
<wgt id='1343'> -7.9274515e+01 </wgt>
<wgt id='1344'> -7.8774074e+01 </wgt>
<wgt id='1345'> -7.8372603e+01 </wgt>
<wgt id='1346'> -7.9356875e+01 </wgt>
<wgt id='1347'> -7.9188232e+01 </wgt>
<wgt id='1348'> -7.8628392e+01 </wgt>
<wgt id='1349'> -7.8697934e+01 </wgt>
<wgt id='1350'> -7.9007307e+01 </wgt>
<wgt id='1351'> -7.9711710e+01 </wgt>
<wgt id='1352'> -7.7915671e+01 </wgt>
<wgt id='1353'> -7.9074295e+01 </wgt>
<wgt id='1354'> -7.8598375e+01 </wgt>
<wgt id='1355'> -7.9081258e+01 </wgt>
<wgt id='1356'> -7.8894437e+01 </wgt>
<wgt id='1357'> -7.9120798e+01 </wgt>
<wgt id='1358'> -7.8414992e+01 </wgt>
<wgt id='1359'> -7.7986258e+01 </wgt>
<wgt id='1360'> -7.9266127e+01 </wgt>
<wgt id='1361'> -7.9748903e+01 </wgt>
<wgt id='1362'> -7.8673036e+01 </wgt>
<wgt id='1363'> -7.8567931e+01 </wgt>
<wgt id='1364'> -7.8909480e+01 </wgt>
<wgt id='1365'> -7.9386290e+01 </wgt>
<wgt id='1366'> -7.7857092e+01 </wgt>
<wgt id='1367'> -7.8739450e+01 </wgt>
<wgt id='1368'> -7.8373762e+01 </wgt>
<wgt id='1369'> -7.8488213e+01 </wgt>
<wgt id='1370'> -7.8535480e+01 </wgt>
<wgt id='1371'> -7.8455803e+01 </wgt>
<wgt id='1372'> -7.9345835e+01 </wgt>
<wgt id='1373'> -7.8734593e+01 </wgt>
<wgt id='1374'> -7.8703686e+01 </wgt>
<wgt id='1375'> -7.8914435e+01 </wgt>
<wgt id='1376'> -8.0179692e+01 </wgt>
<wgt id='1377'> -7.5420160e+01 </wgt>
<wgt id='1378'> -8.2400603e+01 </wgt>
<wgt id='1379'> -7.9588896e+01 </wgt>
<wgt id='1380'> -7.6145059e+01 </wgt>
<wgt id='1381'> -8.3109241e+01 </wgt>
<wgt id='1382'> -6.8513386e+01 </wgt>
<wgt id='1383'> -7.5177653e+01 </wgt>
<wgt id='1384'> -7.9330319e+01 </wgt>
<wgt id='1385'> -8.3384996e+01 </wgt>
<wgt id='1386'> -8.3670459e+01 </wgt>
<wgt id='1387'> -8.3068076e+01 </wgt>
<wgt id='1388'> -8.3657324e+01 </wgt>
<wgt id='1389'> -8.2911211e+01 </wgt>
<wgt id='1390'> -8.3542775e+01 </wgt>
<wgt id='1391'> -8.3199238e+01 </wgt>
<wgt id='1392'> -8.3391090e+01 </wgt>
<wgt id='1393'> -8.3380549e+01 </wgt>
<wgt id='1394'> -8.3544368e+01 </wgt>
<wgt id='1395'> -8.3184544e+01 </wgt>
<wgt id='1396'> -8.3918145e+01 </wgt>
<wgt id='1397'> -8.3106662e+01 </wgt>
<wgt id='1398'> -8.1949763e+01 </wgt>
<wgt id='1399'> -8.4467804e+01 </wgt>
<wgt id='1400'> -8.3248161e+01 </wgt>
<wgt id='1401'> -8.3490053e+01 </wgt>
<wgt id='1402'> -8.3908796e+01 </wgt>
<wgt id='1403'> -8.3145349e+01 </wgt>
<wgt id='1404'> -7.9927317e+01 </wgt>
<wgt id='1405'> -8.5140607e+01 </wgt>
<wgt id='1406'> -8.3222242e+01 </wgt>
<wgt id='1407'> -8.3681560e+01 </wgt>
<wgt id='1408'> -8.3201080e+01 </wgt>
<wgt id='1409'> -8.3748100e+01 </wgt>
<wgt id='1410'> -8.3299615e+01 </wgt>
<wgt id='1411'> -8.3611736e+01 </wgt>
<wgt id='1412'> -8.3825914e+01 </wgt>
<wgt id='1413'> -8.2858946e+01 </wgt>
<wgt id='1414'> -8.3109721e+01 </wgt>
<wgt id='1415'> -8.3499731e+01 </wgt>
<wgt id='1416'> -8.3061812e+01 </wgt>
<wgt id='1417'> -8.3546706e+01 </wgt>
<wgt id='1418'> -8.2769532e+01 </wgt>
<wgt id='1419'> -8.4659374e+01 </wgt>
<wgt id='1420'> -8.3508566e+01 </wgt>
<wgt id='1421'> -8.3907713e+01 </wgt>
<wgt id='1422'> -8.3844578e+01 </wgt>
<wgt id='1423'> -8.2849544e+01 </wgt>
<wgt id='1424'> -8.3804457e+01 </wgt>
<wgt id='1425'> -8.2822832e+01 </wgt>
<wgt id='1426'> -8.3862370e+01 </wgt>
<wgt id='1427'> -8.3241664e+01 </wgt>
<wgt id='1428'> -8.3467474e+01 </wgt>
<wgt id='1429'> -8.2828543e+01 </wgt>
<wgt id='1430'> -8.3495108e+01 </wgt>
<wgt id='1431'> -8.3745589e+01 </wgt>
<wgt id='1432'> -8.3590526e+01 </wgt>
<wgt id='1433'> -8.3717761e+01 </wgt>
<wgt id='1434'> -8.3682854e+01 </wgt>
<wgt id='1435'> -8.3228597e+01 </wgt>
<wgt id='1436'> -6.1514232e+01 </wgt>
<wgt id='1437'> -6.1518130e+01 </wgt>
<wgt id='1438'> -6.1533165e+01 </wgt>
<wgt id='1439'> -6.1518355e+01 </wgt>
<wgt id='1440'> -6.1343057e+01 </wgt>
<wgt id='1441'> -6.1782976e+01 </wgt>
<wgt id='1442'> -6.1384127e+01 </wgt>
<wgt id='1443'> -6.1596739e+01 </wgt>
<wgt id='1444'> -6.1420840e+01 </wgt>
<wgt id='1445'> -6.0651816e+01 </wgt>
<wgt id='1446'> -6.1888128e+01 </wgt>
<wgt id='1447'> -6.1543128e+01 </wgt>
<wgt id='1448'> -6.1480407e+01 </wgt>
<wgt id='1449'> -6.1676319e+01 </wgt>
<wgt id='1450'> -6.1520923e+01 </wgt>
<wgt id='1451'> -6.1878492e+01 </wgt>
<wgt id='1452'> -6.1159972e+01 </wgt>
<wgt id='1453'> -6.1511583e+01 </wgt>
<wgt id='1454'> -6.1631150e+01 </wgt>
<wgt id='1455'> -6.1342530e+01 </wgt>
<wgt id='1456'> -6.1557175e+01 </wgt>
<wgt id='1457'> -6.1917262e+01 </wgt>
<wgt id='1458'> -6.2190352e+01 </wgt>
<wgt id='1459'> -6.1167928e+01 </wgt>
<wgt id='1460'> -6.1366995e+01 </wgt>
<wgt id='1461'> -6.2034729e+01 </wgt>
<wgt id='1462'> -6.0950452e+01 </wgt>
<wgt id='1463'> -6.2487533e+01 </wgt>
<wgt id='1464'> -6.1140242e+01 </wgt>
<wgt id='1465'> -7.7890443e+01 </wgt>
<wgt id='1466'> -7.6690640e+01 </wgt>
<wgt id='1467'> -7.6409670e+01 </wgt>
<wgt id='1468'> -7.6078441e+01 </wgt>
<wgt id='1469'> -7.7020626e+01 </wgt>
<wgt id='1470'> -7.6545518e+01 </wgt>
<wgt id='1471'> -7.6840714e+01 </wgt>
<wgt id='1472'> -7.5993641e+01 </wgt>
<wgt id='1473'> -7.7158656e+01 </wgt>
<wgt id='1474'> -7.7164067e+01 </wgt>
<wgt id='1475'> -7.6433327e+01 </wgt>
<wgt id='1476'> -7.5833098e+01 </wgt>
<wgt id='1477'> -7.6184089e+01 </wgt>
<wgt id='1478'> -7.6572469e+01 </wgt>
<wgt id='1479'> -7.7267776e+01 </wgt>
<wgt id='1480'> -7.6738707e+01 </wgt>
<wgt id='1481'> -7.6530912e+01 </wgt>
<wgt id='1482'> -7.6159256e+01 </wgt>
<wgt id='1483'> -7.6720920e+01 </wgt>
<wgt id='1484'> -7.7819229e+01 </wgt>
<wgt id='1485'> -7.6321554e+01 </wgt>
<wgt id='1486'> -7.6661663e+01 </wgt>
<wgt id='1487'> -7.6838689e+01 </wgt>
<wgt id='1488'> -7.6257982e+01 </wgt>
<wgt id='1489'> -7.7675546e+01 </wgt>
<wgt id='1490'> -7.6529099e+01 </wgt>
<wgt id='1491'> -7.6891844e+01 </wgt>
<wgt id='1492'> -7.6517185e+01 </wgt>
<wgt id='1493'> -7.6543577e+01 </wgt>
<wgt id='1494'> -7.7022144e+01 </wgt>
<wgt id='1495'> -7.6381610e+01 </wgt>
<wgt id='1496'> -7.6167277e+01 </wgt>
<wgt id='1497'> -7.6694066e+01 </wgt>
<wgt id='1498'> -7.6770249e+01 </wgt>
<wgt id='1499'> -7.6226946e+01 </wgt>
<wgt id='1500'> -7.6697685e+01 </wgt>
<wgt id='1501'> -7.6753618e+01 </wgt>
<wgt id='1502'> -7.6608298e+01 </wgt>
<wgt id='1503'> -7.6692708e+01 </wgt>
<wgt id='1504'> -7.6398071e+01 </wgt>
<wgt id='1505'> -7.6599580e+01 </wgt>
<wgt id='1506'> -7.6995449e+01 </wgt>
<wgt id='1507'> -7.6547773e+01 </wgt>
<wgt id='1508'> -7.6930268e+01 </wgt>
<wgt id='1509'> -7.6597440e+01 </wgt>
<wgt id='1510'> -7.7091473e+01 </wgt>
<wgt id='1511'> -7.6789642e+01 </wgt>
<wgt id='1512'> -7.6506194e+01 </wgt>
<wgt id='1513'> -7.6733137e+01 </wgt>
<wgt id='1514'> -7.6610931e+01 </wgt>
<wgt id='1515'> -7.6778753e+01 </wgt>
<wgt id='1516'> -7.6773746e+01 </wgt>
<wgt id='1517'> -7.6622944e+01 </wgt>
<wgt id='1518'> -7.6556818e+01 </wgt>
<wgt id='1519'> -7.6567987e+01 </wgt>
<wgt id='1520'> -7.6600463e+01 </wgt>
<wgt id='1521'> -7.6617137e+01 </wgt>
<wgt id='1522'> -7.6708725e+01 </wgt>
<wgt id='1523'> -7.6602055e+01 </wgt>
<wgt id='1524'> -7.6795373e+01 </wgt>
<wgt id='1525'> -7.6633368e+01 </wgt>
<wgt id='1526'> -7.6588214e+01 </wgt>
<wgt id='1527'> -7.6641188e+01 </wgt>
<wgt id='1528'> -7.6716880e+01 </wgt>
<wgt id='1529'> -7.6697459e+01 </wgt>
<wgt id='1530'> -7.6672059e+01 </wgt>
<wgt id='1531'> -7.6623398e+01 </wgt>
<wgt id='1532'> -7.6566268e+01 </wgt>
<wgt id='1533'> -7.6628984e+01 </wgt>
<wgt id='1534'> -7.6655004e+01 </wgt>
<wgt id='1535'> -7.6719974e+01 </wgt>
<wgt id='1536'> -7.6657817e+01 </wgt>
<wgt id='1537'> -7.6741988e+01 </wgt>
<wgt id='1538'> -7.6664382e+01 </wgt>
<wgt id='1539'> -7.6672130e+01 </wgt>
<wgt id='1540'> -7.6606831e+01 </wgt>
<wgt id='1541'> -7.6669648e+01 </wgt>
<wgt id='1542'> -7.6747667e+01 </wgt>
<wgt id='1543'> -7.6656529e+01 </wgt>
<wgt id='1544'> -7.6717933e+01 </wgt>
<wgt id='1545'> -7.6750053e+01 </wgt>
<wgt id='1546'> -7.6658731e+01 </wgt>
<wgt id='1547'> -7.6703431e+01 </wgt>
<wgt id='1548'> -7.6707410e+01 </wgt>
<wgt id='1549'> -7.6704567e+01 </wgt>
<wgt id='1550'> -7.6773921e+01 </wgt>
<wgt id='1551'> -7.6708662e+01 </wgt>
<wgt id='1552'> -7.6723165e+01 </wgt>
<wgt id='1553'> -7.6706997e+01 </wgt>
<wgt id='1554'> -7.6631873e+01 </wgt>
<wgt id='1555'> -7.6685183e+01 </wgt>
<wgt id='1556'> -7.6653888e+01 </wgt>
<wgt id='1557'> -7.6682469e+01 </wgt>
<wgt id='1558'> -7.6700020e+01 </wgt>
<wgt id='1559'> -7.6670010e+01 </wgt>
<wgt id='1560'> -7.6701511e+01 </wgt>
<wgt id='1561'> -7.6712665e+01 </wgt>
<wgt id='1562'> -7.6708606e+01 </wgt>
<wgt id='1563'> -7.6699209e+01 </wgt>
<wgt id='1564'> -7.6708872e+01 </wgt>
<wgt id='1565'> -7.6710365e+01 </wgt>
<wgt id='1566'> -7.6690476e+01 </wgt>
<wgt id='1567'> -7.3996904e+01 </wgt>
<wgt id='1568'> -7.9285234e+01 </wgt>
<wgt id='1569'> -7.8810434e+01 </wgt>
<wgt id='1570'> -7.9141099e+01 </wgt>
<wgt id='1571'> -7.8467080e+01 </wgt>
<wgt id='1572'> -7.9101609e+01 </wgt>
<wgt id='1573'> -7.9178210e+01 </wgt>
<wgt id='1574'> -7.9270626e+01 </wgt>
<wgt id='1575'> -7.9002723e+01 </wgt>
<wgt id='1576'> -7.8718233e+01 </wgt>
<wgt id='1577'> -7.8812493e+01 </wgt>
<wgt id='1578'> -7.8736412e+01 </wgt>
<wgt id='1579'> -7.9155532e+01 </wgt>
<wgt id='1580'> -7.8756473e+01 </wgt>
<wgt id='1581'> -7.8698344e+01 </wgt>
<wgt id='1582'> -7.9223775e+01 </wgt>
<wgt id='1583'> -7.8437461e+01 </wgt>
<wgt id='1584'> -7.9081548e+01 </wgt>
<wgt id='1585'> -7.8404519e+01 </wgt>
<wgt id='1586'> -7.8880400e+01 </wgt>
<wgt id='1587'> -7.9236226e+01 </wgt>
<wgt id='1588'> -7.7852369e+01 </wgt>
<wgt id='1589'> -7.8849080e+01 </wgt>
<wgt id='1590'> -7.9081918e+01 </wgt>
<wgt id='1591'> -7.7953358e+01 </wgt>
<wgt id='1592'> -7.9111580e+01 </wgt>
<wgt id='1593'> -7.9584048e+01 </wgt>
<wgt id='1594'> -7.8630788e+01 </wgt>
<wgt id='1595'> -7.8504950e+01 </wgt>
<wgt id='1596'> -7.9066209e+01 </wgt>
<wgt id='1597'> -7.8615852e+01 </wgt>
<wgt id='1598'> -7.8438915e+01 </wgt>
<wgt id='1599'> -7.8968471e+01 </wgt>
<wgt id='1600'> -7.9137594e+01 </wgt>
<wgt id='1601'> -7.9292832e+01 </wgt>
<wgt id='1602'> -7.9394450e+01 </wgt>
<wgt id='1603'> -7.8953960e+01 </wgt>
<wgt id='1604'> -7.8922541e+01 </wgt>
<wgt id='1605'> -7.8301912e+01 </wgt>
<wgt id='1606'> -7.8983717e+01 </wgt>
<wgt id='1607'> -7.8811539e+01 </wgt>
<wgt id='1608'> -7.8427635e+01 </wgt>
<wgt id='1609'> -7.8632603e+01 </wgt>
<wgt id='1610'> -7.8613770e+01 </wgt>
<wgt id='1611'> -7.8819140e+01 </wgt>
<wgt id='1612'> -7.8708363e+01 </wgt>
<wgt id='1613'> -7.9158668e+01 </wgt>
<wgt id='1614'> -7.8708648e+01 </wgt>
<wgt id='1615'> -7.9013174e+01 </wgt>
<wgt id='1616'> -7.8726965e+01 </wgt>
<wgt id='1617'> -7.8954846e+01 </wgt>
<wgt id='1618'> -7.8770724e+01 </wgt>
<wgt id='1619'> -7.8873202e+01 </wgt>
<wgt id='1620'> -7.8787076e+01 </wgt>
<wgt id='1621'> -7.8793186e+01 </wgt>
<wgt id='1622'> -7.8730280e+01 </wgt>
<wgt id='1623'> -7.8743333e+01 </wgt>
<wgt id='1624'> -7.8731798e+01 </wgt>
<wgt id='1625'> -7.8978001e+01 </wgt>
<wgt id='1626'> -7.8763718e+01 </wgt>
<wgt id='1627'> -7.8715172e+01 </wgt>
<wgt id='1628'> -7.8827038e+01 </wgt>
<wgt id='1629'> -7.8790487e+01 </wgt>
<wgt id='1630'> -7.8832425e+01 </wgt>
<wgt id='1631'> -7.8937716e+01 </wgt>
<wgt id='1632'> -7.8773583e+01 </wgt>
<wgt id='1633'> -7.8739407e+01 </wgt>
<wgt id='1634'> -7.8828366e+01 </wgt>
<wgt id='1635'> -7.8917471e+01 </wgt>
<wgt id='1636'> -7.8889551e+01 </wgt>
<wgt id='1637'> -7.8859240e+01 </wgt>
<wgt id='1638'> -7.8828828e+01 </wgt>
<wgt id='1639'> -7.8868833e+01 </wgt>
<wgt id='1640'> -7.8866639e+01 </wgt>
<wgt id='1641'> -7.8785123e+01 </wgt>
<wgt id='1642'> -7.8827812e+01 </wgt>
<wgt id='1643'> -7.8838559e+01 </wgt>
<wgt id='1644'> -7.8804615e+01 </wgt>
<wgt id='1645'> -7.8817470e+01 </wgt>
<wgt id='1646'> -7.8802206e+01 </wgt>
<wgt id='1647'> -7.8808370e+01 </wgt>
<wgt id='1648'> -7.8840198e+01 </wgt>
<wgt id='1649'> -7.8840778e+01 </wgt>
<wgt id='1650'> -7.8806704e+01 </wgt>
<wgt id='1651'> -7.8852298e+01 </wgt>
<wgt id='1652'> -7.8815075e+01 </wgt>
<wgt id='1653'> -7.8805806e+01 </wgt>
<wgt id='1654'> -7.8738240e+01 </wgt>
<wgt id='1655'> -7.8834240e+01 </wgt>
<wgt id='1656'> -7.8746606e+01 </wgt>
<wgt id='1657'> -7.8765016e+01 </wgt>
<wgt id='1658'> -7.8784273e+01 </wgt>
<wgt id='1659'> -7.8816550e+01 </wgt>
<wgt id='1660'> -7.8793177e+01 </wgt>
<wgt id='1661'> -7.8823247e+01 </wgt>
<wgt id='1662'> -7.8807494e+01 </wgt>
<wgt id='1663'> -7.8787523e+01 </wgt>
<wgt id='1664'> -7.8823972e+01 </wgt>
<wgt id='1665'> -7.8787017e+01 </wgt>
<wgt id='1666'> -7.8810547e+01 </wgt>
<wgt id='1667'> -7.8800682e+01 </wgt>
<wgt id='1668'> -7.8846129e+01 </wgt>
<wgt id='1669'> -7.8829780e+01 </wgt>
<wgt id='1670'> -7.5918351e+01 </wgt>
<wgt id='1671'> -8.1509953e+01 </wgt>
<wgt id='1672'> -7.6710157e+01 </wgt>
<wgt id='1673'> -7.5866379e+01 </wgt>
<wgt id='1674'> -7.5512679e+01 </wgt>
<wgt id='1675'> -7.6725650e+01 </wgt>
<wgt id='1676'> -7.8305923e+01 </wgt>
<wgt id='1677'> -7.6385840e+01 </wgt>
<wgt id='1678'> -7.7095562e+01 </wgt>
<wgt id='1679'> -7.6726780e+01 </wgt>
<wgt id='1680'> -7.6788807e+01 </wgt>
<wgt id='1681'> -7.6764314e+01 </wgt>
<wgt id='1682'> -7.6731735e+01 </wgt>
<wgt id='1683'> -7.6689180e+01 </wgt>
<wgt id='1684'> -7.7194809e+01 </wgt>
<wgt id='1685'> -7.6685073e+01 </wgt>
<wgt id='1686'> -7.6580889e+01 </wgt>
<wgt id='1687'> -7.6933096e+01 </wgt>
<wgt id='1688'> -7.6947958e+01 </wgt>
<wgt id='1689'> -7.6514051e+01 </wgt>
<wgt id='1690'> -7.6616722e+01 </wgt>
<wgt id='1691'> -7.6981004e+01 </wgt>
<wgt id='1692'> -7.7246414e+01 </wgt>
<wgt id='1693'> -7.6616900e+01 </wgt>
<wgt id='1694'> -7.6515486e+01 </wgt>
<wgt id='1695'> -7.6805434e+01 </wgt>
<wgt id='1696'> -7.6495940e+01 </wgt>
<wgt id='1697'> -7.6918465e+01 </wgt>
<wgt id='1698'> -7.6089722e+01 </wgt>
<wgt id='1699'> -7.6951337e+01 </wgt>
<wgt id='1700'> -7.6475456e+01 </wgt>
<wgt id='1701'> -7.6687799e+01 </wgt>
<wgt id='1702'> -7.6773369e+01 </wgt>
<wgt id='1703'> -7.3996904e+01 </wgt>
<wgt id='1704'> -7.9285234e+01 </wgt>
<wgt id='1705'> -7.8802872e+01 </wgt>
<wgt id='1706'> -7.9380294e+01 </wgt>
<wgt id='1707'> -7.9117717e+01 </wgt>
<wgt id='1708'> -7.8750428e+01 </wgt>
<wgt id='1709'> -7.7752401e+01 </wgt>
<wgt id='1710'> -7.8375377e+01 </wgt>
<wgt id='1711'> -7.8847900e+01 </wgt>
<wgt id='1712'> -7.8887851e+01 </wgt>
<wgt id='1713'> -7.8928964e+01 </wgt>
<wgt id='1714'> -7.8234135e+01 </wgt>
<wgt id='1715'> -7.8524023e+01 </wgt>
<wgt id='1716'> -7.9320638e+01 </wgt>
<wgt id='1717'> -7.8641277e+01 </wgt>
<wgt id='1718'> -7.8567630e+01 </wgt>
<wgt id='1719'> -7.8728684e+01 </wgt>
<wgt id='1720'> -7.8485734e+01 </wgt>
<wgt id='1721'> -7.8819357e+01 </wgt>
<wgt id='1722'> -7.8184977e+01 </wgt>
<wgt id='1723'> -7.8906350e+01 </wgt>
<wgt id='1724'> -7.9149913e+01 </wgt>
<wgt id='1725'> -7.7791411e+01 </wgt>
<wgt id='1726'> -7.8091345e+01 </wgt>
<wgt id='1727'> -7.8761586e+01 </wgt>
<wgt id='1728'> -7.8776825e+01 </wgt>
<wgt id='1729'> -7.8684701e+01 </wgt>
<wgt id='1730'> -7.8696881e+01 </wgt>
<wgt id='1731'> -7.9038348e+01 </wgt>
<wgt id='1732'> -7.8820315e+01 </wgt>
<wgt id='1733'> -7.8619281e+01 </wgt>
<wgt id='1734'> -7.8809642e+01 </wgt>
<wgt id='1735'> -7.8849140e+01 </wgt>
<wgt id='1736'> -7.5918351e+01 </wgt>
<wgt id='1737'> -8.1509953e+01 </wgt>
<wgt id='1738'> -7.7492573e+01 </wgt>
<wgt id='1739'> -7.7588832e+01 </wgt>
<wgt id='1740'> -7.7396690e+01 </wgt>
<wgt id='1741'> -7.7312710e+01 </wgt>
<wgt id='1742'> -7.7672450e+01 </wgt>
<wgt id='1743'> -7.7431686e+01 </wgt>
<wgt id='1744'> -7.7552832e+01 </wgt>
<wgt id='1745'> -7.7308504e+01 </wgt>
<wgt id='1746'> -7.7671426e+01 </wgt>
<wgt id='1747'> -7.7935816e+01 </wgt>
<wgt id='1748'> -7.7023545e+01 </wgt>
<wgt id='1749'> -7.7615437e+01 </wgt>
<wgt id='1750'> -7.7375290e+01 </wgt>
<wgt id='1751'> -7.7317675e+01 </wgt>
<wgt id='1752'> -7.7664551e+01 </wgt>
<wgt id='1753'> -7.7499135e+01 </wgt>
<wgt id='1754'> -7.7446424e+01 </wgt>
<wgt id='1755'> -7.7498856e+01 </wgt>
<wgt id='1756'> -7.7499320e+01 </wgt>
<wgt id='1757'> -7.6868401e+01 </wgt>
<wgt id='1758'> -7.8039782e+01 </wgt>
<wgt id='1759'> -7.6841394e+01 </wgt>
<wgt id='1760'> -7.8139328e+01 </wgt>
<wgt id='1761'> -7.7285021e+01 </wgt>
<wgt id='1762'> -7.7549381e+01 </wgt>
<wgt id='1763'> -7.8069782e+01 </wgt>
<wgt id='1764'> -7.6887555e+01 </wgt>
<wgt id='1765'> -7.7526074e+01 </wgt>
<wgt id='1766'> -7.7300253e+01 </wgt>
<wgt id='1767'> -7.7492573e+01 </wgt>
<wgt id='1768'> -7.9457277e+01 </wgt>
<wgt id='1769'> -7.5355190e+01 </wgt>
<wgt id='1770'> -8.2562772e+01 </wgt>
<wgt id='1771'> -8.0968724e+01 </wgt>
<wgt id='1772'> -7.8046385e+01 </wgt>
<wgt id='1773'> -7.7416118e+01 </wgt>
<wgt id='1774'> -7.7545105e+01 </wgt>
<wgt id='1775'> -7.7439558e+01 </wgt>
<wgt id='1776'> -7.7271863e+01 </wgt>
<wgt id='1777'> -7.7682542e+01 </wgt>
<wgt id='1778'> -7.7155670e+01 </wgt>
<wgt id='1779'> -7.7943135e+01 </wgt>
<wgt id='1780'> -7.7184632e+01 </wgt>
<wgt id='1781'> -7.9610695e+01 </wgt>
<wgt id='1782'> -7.9678702e+01 </wgt>
<wgt id='1783'> -7.9548836e+01 </wgt>
<wgt id='1784'> -7.9479180e+01 </wgt>
<wgt id='1785'> -7.9748312e+01 </wgt>
<wgt id='1786'> -7.9485267e+01 </wgt>
<wgt id='1787'> -7.9741284e+01 </wgt>
<wgt id='1788'> -7.9249492e+01 </wgt>
<wgt id='1789'> -7.9972844e+01 </wgt>
<wgt id='1790'> -7.9957665e+01 </wgt>
<wgt id='1791'> -7.9268610e+01 </wgt>
<wgt id='1792'> -7.9974815e+01 </wgt>
<wgt id='1793'> -7.9234387e+01 </wgt>
<wgt id='1794'> -7.9294238e+01 </wgt>
<wgt id='1795'> -7.9929431e+01 </wgt>
<wgt id='1796'> -7.9482765e+01 </wgt>
<wgt id='1797'> -7.9699800e+01 </wgt>
<wgt id='1798'> -7.9648092e+01 </wgt>
<wgt id='1799'> -7.9571759e+01 </wgt>
<wgt id='1800'> -7.9235348e+01 </wgt>
<wgt id='1801'> -7.9939231e+01 </wgt>
<wgt id='1802'> -7.9661457e+01 </wgt>
<wgt id='1803'> -7.9584101e+01 </wgt>
<wgt id='1804'> -8.0468086e+01 </wgt>
<wgt id='1805'> -7.8799117e+01 </wgt>
<wgt id='1806'> -8.0294423e+01 </wgt>
<wgt id='1807'> -7.8916822e+01 </wgt>
<wgt id='1808'> -8.0062709e+01 </wgt>
<wgt id='1809'> -7.8953338e+01 </wgt>
<wgt id='1810'> -7.9519309e+01 </wgt>
<wgt id='1811'> -8.1693422e+01 </wgt>
<wgt id='1812'> -7.6770762e+01 </wgt>
<wgt id='1813'> -8.4622444e+01 </wgt>
<wgt id='1814'> -8.2410981e+01 </wgt>
<wgt id='1815'> -8.1782209e+01 </wgt>
<wgt id='1816'> -7.8244903e+01 </wgt>
<wgt id='1817'> -7.9527195e+01 </wgt>
<wgt id='1818'> -7.9353799e+01 </wgt>
<wgt id='1819'> -7.8863513e+01 </wgt>
<wgt id='1820'> -8.1558784e+01 </wgt>
<wgt id='1821'> -7.9047996e+01 </wgt>
<wgt id='1822'> -7.9429292e+01 </wgt>
<wgt id='1823'> -7.8192904e+01 </wgt>
<wgt id='1824'> -7.8327491e+01 </wgt>
<wgt id='1825'> -7.8307234e+01 </wgt>
<wgt id='1826'> -7.8286776e+01 </wgt>
<wgt id='1827'> -7.8266811e+01 </wgt>
<wgt id='1828'> -7.8246556e+01 </wgt>
<wgt id='1829'> -7.8226120e+01 </wgt>
<wgt id='1830'> -7.8206094e+01 </wgt>
<wgt id='1831'> -7.8185886e+01 </wgt>
<wgt id='1832'> -7.8165531e+01 </wgt>
<wgt id='1833'> -7.8145449e+01 </wgt>
<wgt id='1834'> -7.8124919e+01 </wgt>
<wgt id='1835'> -7.8104681e+01 </wgt>
<wgt id='1836'> -7.8084673e+01 </wgt>
<wgt id='1837'> -7.8064394e+01 </wgt>
<wgt id='1838'> -7.8044248e+01 </wgt>
<wgt id='1839'> -7.8023947e+01 </wgt>
<wgt id='1840'> -7.8003716e+01 </wgt>
<wgt id='1841'> -7.7983613e+01 </wgt>
<wgt id='1842'> -7.7963467e+01 </wgt>
<wgt id='1843'> -7.7943215e+01 </wgt>
<wgt id='1844'> -7.7923002e+01 </wgt>
<wgt id='1845'> -7.7902478e+01 </wgt>
<wgt id='1846'> -7.7882377e+01 </wgt>
<wgt id='1847'> -7.7862260e+01 </wgt>
<wgt id='1848'> -7.7841994e+01 </wgt>
<wgt id='1849'> -7.7821695e+01 </wgt>
<wgt id='1850'> -7.7801597e+01 </wgt>
<wgt id='1851'> -7.7781368e+01 </wgt>
<wgt id='1852'> -7.7761443e+01 </wgt>
<wgt id='1853'> -7.7741118e+01 </wgt>
<wgt id='1854'> -7.7720846e+01 </wgt>
<wgt id='1855'> -7.8630517e+01 </wgt>
<wgt id='1856'> -7.8955921e+01 </wgt>
<wgt id='1857'> -7.8287558e+01 </wgt>
<wgt id='1858'> -7.8920114e+01 </wgt>
<wgt id='1859'> -7.8995863e+01 </wgt>
<wgt id='1860'> -7.9088949e+01 </wgt>
<wgt id='1861'> -7.8825722e+01 </wgt>
<wgt id='1862'> -7.8542864e+01 </wgt>
<wgt id='1863'> -7.8633025e+01 </wgt>
<wgt id='1864'> -7.8555925e+01 </wgt>
<wgt id='1865'> -7.8973121e+01 </wgt>
<wgt id='1866'> -7.8581627e+01 </wgt>
<wgt id='1867'> -7.8520492e+01 </wgt>
<wgt id='1868'> -7.9043961e+01 </wgt>
<wgt id='1869'> -7.8257828e+01 </wgt>
<wgt id='1870'> -7.8895996e+01 </wgt>
<wgt id='1871'> -7.8230175e+01 </wgt>
<wgt id='1872'> -7.8699006e+01 </wgt>
<wgt id='1873'> -7.9054656e+01 </wgt>
<wgt id='1874'> -7.7677381e+01 </wgt>
<wgt id='1875'> -7.8672311e+01 </wgt>
<wgt id='1876'> -7.8899726e+01 </wgt>
<wgt id='1877'> -7.7773681e+01 </wgt>
<wgt id='1878'> -7.8933450e+01 </wgt>
<wgt id='1879'> -7.9401285e+01 </wgt>
<wgt id='1880'> -7.8447974e+01 </wgt>
<wgt id='1881'> -7.8322560e+01 </wgt>
<wgt id='1882'> -7.8889438e+01 </wgt>
<wgt id='1883'> -7.8436757e+01 </wgt>
<wgt id='1884'> -7.8257369e+01 </wgt>
<wgt id='1885'> -7.8786409e+01 </wgt>
<wgt id='1886'> -7.8960768e+01 </wgt>
<wgt id='1887'> -7.9110620e+01 </wgt>
<wgt id='1888'> -7.9211104e+01 </wgt>
<wgt id='1889'> -7.8773320e+01 </wgt>
<wgt id='1890'> -7.8740617e+01 </wgt>
<wgt id='1891'> -7.8122729e+01 </wgt>
<wgt id='1892'> -7.8803199e+01 </wgt>
<wgt id='1893'> -7.8630911e+01 </wgt>
<wgt id='1894'> -7.8246051e+01 </wgt>
<wgt id='1895'> -7.8452591e+01 </wgt>
<wgt id='1896'> -7.8433244e+01 </wgt>
<wgt id='1897'> -7.8639125e+01 </wgt>
<wgt id='1898'> -7.8530758e+01 </wgt>
<wgt id='1899'> -7.8977456e+01 </wgt>
<wgt id='1900'> -7.8529109e+01 </wgt>
<wgt id='1901'> -7.8833971e+01 </wgt>
<wgt id='1902'> -7.8546876e+01 </wgt>
<wgt id='1903'> -7.8774903e+01 </wgt>
<wgt id='1904'> -7.8591925e+01 </wgt>
<wgt id='1905'> -7.8693262e+01 </wgt>
<wgt id='1906'> -7.8606584e+01 </wgt>
<wgt id='1907'> -7.8613497e+01 </wgt>
<wgt id='1908'> -7.8550975e+01 </wgt>
<wgt id='1909'> -7.8564331e+01 </wgt>
<wgt id='1910'> -7.8552206e+01 </wgt>
<wgt id='1911'> -7.8797093e+01 </wgt>
<wgt id='1912'> -7.8583771e+01 </wgt>
<wgt id='1913'> -7.8536557e+01 </wgt>
<wgt id='1914'> -7.8647188e+01 </wgt>
<wgt id='1915'> -7.8610977e+01 </wgt>
<wgt id='1916'> -7.8652278e+01 </wgt>
<wgt id='1917'> -7.8758558e+01 </wgt>
<wgt id='1918'> -7.8592655e+01 </wgt>
<wgt id='1919'> -7.8561469e+01 </wgt>
<wgt id='1920'> -7.8648816e+01 </wgt>
<wgt id='1921'> -7.8737316e+01 </wgt>
<wgt id='1922'> -7.8709259e+01 </wgt>
<wgt id='1923'> -7.8679080e+01 </wgt>
<wgt id='1924'> -7.8647763e+01 </wgt>
<wgt id='1925'> -7.8688712e+01 </wgt>
<wgt id='1926'> -7.8686930e+01 </wgt>
<wgt id='1927'> -7.8604971e+01 </wgt>
<wgt id='1928'> -7.8647724e+01 </wgt>
<wgt id='1929'> -7.8659520e+01 </wgt>
<wgt id='1930'> -7.8624996e+01 </wgt>
<wgt id='1931'> -7.8638682e+01 </wgt>
<wgt id='1932'> -7.8622196e+01 </wgt>
<wgt id='1933'> -7.8628821e+01 </wgt>
<wgt id='1934'> -7.8659896e+01 </wgt>
<wgt id='1935'> -7.8659556e+01 </wgt>
<wgt id='1936'> -7.8627590e+01 </wgt>
<wgt id='1937'> -7.8672775e+01 </wgt>
<wgt id='1938'> -7.8635126e+01 </wgt>
<wgt id='1939'> -7.8625868e+01 </wgt>
<wgt id='1940'> -7.8558152e+01 </wgt>
<wgt id='1941'> -7.8654600e+01 </wgt>
<wgt id='1942'> -7.8566689e+01 </wgt>
<wgt id='1943'> -7.8584047e+01 </wgt>
<wgt id='1944'> -7.8603752e+01 </wgt>
<wgt id='1945'> -7.8635961e+01 </wgt>
<wgt id='1946'> -7.8612538e+01 </wgt>
<wgt id='1947'> -7.8643311e+01 </wgt>
<wgt id='1948'> -7.8627520e+01 </wgt>
<wgt id='1949'> -7.8607225e+01 </wgt>
<wgt id='1950'> -7.8644557e+01 </wgt>
<wgt id='1951'> -7.8607343e+01 </wgt>
<wgt id='1952'> -7.8630722e+01 </wgt>
<wgt id='1953'> -7.8619986e+01 </wgt>
<wgt id='1954'> -7.8667030e+01 </wgt>
<wgt id='1955'> -7.8650214e+01 </wgt>
<wgt id='1956'> -7.8630469e+01 </wgt>
<wgt id='1957'> -7.8630775e+01 </wgt>
<wgt id='1958'> -7.8630567e+01 </wgt>
<wgt id='1959'> -7.8630575e+01 </wgt>
<wgt id='1960'> -7.8630664e+01 </wgt>
<wgt id='1961'> -7.8630539e+01 </wgt>
<wgt id='1962'> -7.8630835e+01 </wgt>
</rwgt>
</event>
<event npLO=" -1 " npNLO=" 1 ">
 8      1 +1.5146096e+02 1.56313590e+01 7.54677110e-03 1.51622970e-01
        4 -1    0    0  502    0 +0.0000000000e+00 +0.0000000000e+00 +1.4346492000e+02 1.4346492000e+02 0.0000000000e+00 0.0000e+00 9.0000e+00
       21 -1    0    0  503  501 +0.0000000000e+00 +0.0000000000e+00 -4.0279412000e+01 4.0279412000e+01 0.0000000000e+00 0.0000e+00 9.0000e+00
       23  2    1    2    0    0 -2.7673927000e+00 +2.8833708000e+01 +7.8861710000e+01 1.2729900000e+02 9.5639034000e+01 0.0000e+00 0.0000e+00
       11  1    3    3    0    0 +2.9748839000e+01 +8.1522698000e+00 +8.7909519000e+00 3.2073880000e+01 0.0000000000e+00 0.0000e+00 9.0000e+00
      -11  1    3    3    0    0 -4.6330901000e+01 +1.4836250000e+01 +5.9589209000e+01 7.6925552000e+01 0.0000000000e+00 0.0000e+00 9.0000e+00
       22  1    3    3    0    0 +1.3814669000e+01 +5.8451878000e+00 +1.0481549000e+01 1.8299568000e+01 0.0000000000e+00 0.0000e+00 9.0000e+00
        4  1    1    2  503    0 -1.8594106000e+00 -9.0955479000e+00 -1.1804419000e+01 1.5017680000e+01 0.0000000000e+00 0.0000e+00 9.0000e+00
       21  1    1    2  502  501 +4.6268033000e+00 -1.9738160000e+01 +3.6128219000e+01 4.1427653000e+01 0.0000000000e+00 0.0000e+00 9.0000e+00
#aMCatNLO 2  0  0  2  6 0.25008308E+01 0.00000000E+00 -9  7  0 0.00000000E+00 0.00000000E+00 0.00000000E+00 0.00000000E+00 0.00000000E+00
<rwgt>
<wgt id='1001'> +1.5146000e+02 </wgt>
<wgt id='1002'> +1.5146000e+02 </wgt>
<wgt id='1003'> +1.3739000e+02 </wgt>
<wgt id='1004'> +1.5143000e+02 </wgt>
<wgt id='1005'> +1.5004000e+02 </wgt>
<wgt id='1006'> +1.4959000e+02 </wgt>
<wgt id='1007'> +1.2964000e+02 </wgt>
<wgt id='1008'> +1.5360000e+02 </wgt>
<wgt id='1009'> +1.5356000e+02 </wgt>
<wgt id='1010'> +1.5272000e+02 </wgt>
<wgt id='1011'> +1.5186000e+02 </wgt>
<wgt id='1012'> +1.4419000e+02 </wgt>
<wgt id='1013'> +1.4558000e+02 </wgt>
<wgt id='1014'> +1.5528000e+02 </wgt>
<wgt id='1015'> +1.5477000e+02 </wgt>
<wgt id='1016'> +1.4558000e+02 </wgt>
<wgt id='1017'> +1.5269000e+02 </wgt>
<wgt id='1018'> +1.5457000e+02 </wgt>
<wgt id='1019'> +1.4860000e+02 </wgt>
<wgt id='1020'> +1.5055000e+02 </wgt>
<wgt id='1021'> +1.5476000e+02 </wgt>
<wgt id='1022'> +1.5528000e+02 </wgt>
<wgt id='1023'> +1.5230000e+02 </wgt>
<wgt id='1024'> +1.4966000e+02 </wgt>
<wgt id='1025'> +1.6522000e+02 </wgt>
<wgt id='1026'> +1.5005000e+02 </wgt>
<wgt id='1027'> +1.5374000e+02 </wgt>
<wgt id='1028'> +1.4904000e+02 </wgt>
<wgt id='1029'> +1.4977000e+02 </wgt>
<wgt id='1030'> +1.4969000e+02 </wgt>
<wgt id='1031'> +1.5002000e+02 </wgt>
<wgt id='1032'> +1.5569000e+02 </wgt>
<wgt id='1033'> +1.5030000e+02 </wgt>
<wgt id='1034'> +1.4565000e+02 </wgt>
<wgt id='1035'> +1.5360000e+02 </wgt>
<wgt id='1036'> +1.5254000e+02 </wgt>
<wgt id='1037'> +1.5597000e+02 </wgt>
<wgt id='1038'> +1.5700000e+02 </wgt>
<wgt id='1039'> +1.5422000e+02 </wgt>
<wgt id='1040'> +1.5332000e+02 </wgt>
<wgt id='1041'> +1.4661000e+02 </wgt>
<wgt id='1042'> +1.5408000e+02 </wgt>
<wgt id='1043'> +1.5188000e+02 </wgt>
<wgt id='1044'> +1.5314000e+02 </wgt>
<wgt id='1045'> +1.5326000e+02 </wgt>
<wgt id='1046'> +1.4986000e+02 </wgt>
<wgt id='1047'> +1.5219000e+02 </wgt>
<wgt id='1048'> +1.5425000e+02 </wgt>
<wgt id='1049'> +1.4895000e+02 </wgt>
<wgt id='1050'> +1.4899000e+02 </wgt>
<wgt id='1051'> +1.5176000e+02 </wgt>
<wgt id='1052'> +1.5154000e+02 </wgt>
<wgt id='1053'> +1.5148000e+02 </wgt>
<wgt id='1054'> +1.4987000e+02 </wgt>
<wgt id='1055'> +1.5406000e+02 </wgt>
<wgt id='1056'> +1.5168000e+02 </wgt>
<wgt id='1057'> +1.5098000e+02 </wgt>
<wgt id='1058'> +1.4692000e+02 </wgt>
<wgt id='1059'> +1.5898000e+02 </wgt>
<wgt id='1060'> +1.4932000e+02 </wgt>
<wgt id='1061'> +1.5368000e+02 </wgt>
<wgt id='1062'> +1.5120000e+02 </wgt>
<wgt id='1063'> +1.5335000e+02 </wgt>
<wgt id='1064'> +1.5168000e+02 </wgt>
<wgt id='1065'> +1.5437000e+02 </wgt>
<wgt id='1066'> +1.4814000e+02 </wgt>
<wgt id='1067'> +1.5387000e+02 </wgt>
<wgt id='1068'> +1.5173000e+02 </wgt>
<wgt id='1069'> +1.6135000e+02 </wgt>
<wgt id='1070'> +1.4857000e+02 </wgt>
<wgt id='1071'> +1.4656000e+02 </wgt>
<wgt id='1072'> +1.5126000e+02 </wgt>
<wgt id='1073'> +1.5511000e+02 </wgt>
<wgt id='1074'> +1.5123000e+02 </wgt>
<wgt id='1075'> +1.3929000e+02 </wgt>
<wgt id='1076'> +1.5238000e+02 </wgt>
<wgt id='1077'> +1.5003000e+02 </wgt>
<wgt id='1078'> +1.4626000e+02 </wgt>
<wgt id='1079'> +1.5258000e+02 </wgt>
<wgt id='1080'> +1.5810000e+02 </wgt>
<wgt id='1081'> +1.5077000e+02 </wgt>
<wgt id='1082'> +1.5235000e+02 </wgt>
<wgt id='1083'> +1.5229000e+02 </wgt>
<wgt id='1084'> +1.4917000e+02 </wgt>
<wgt id='1085'> +1.5426000e+02 </wgt>
<wgt id='1086'> +1.5195000e+02 </wgt>
<wgt id='1087'> +1.4618000e+02 </wgt>
<wgt id='1088'> +1.5038000e+02 </wgt>
<wgt id='1089'> +1.5017000e+02 </wgt>
<wgt id='1090'> +1.5168000e+02 </wgt>
<wgt id='1091'> +1.5710000e+02 </wgt>
<wgt id='1092'> +1.5011000e+02 </wgt>
<wgt id='1093'> +1.4804000e+02 </wgt>
<wgt id='1094'> +1.5561000e+02 </wgt>
<wgt id='1095'> +1.5072000e+02 </wgt>
<wgt id='1096'> +1.5512000e+02 </wgt>
<wgt id='1097'> +1.4796000e+02 </wgt>
<wgt id='1098'> +1.5490000e+02 </wgt>
<wgt id='1099'> +1.5221000e+02 </wgt>
<wgt id='1100'> +1.5906000e+02 </wgt>
<wgt id='1101'> +1.5679000e+02 </wgt>
<wgt id='1102'> +1.5202000e+02 </wgt>
<wgt id='1103'> +1.4693000e+02 </wgt>
<wgt id='1104'> +1.5485000e+02 </wgt>
<wgt id='1105'> +1.5146096e+02 </wgt>
<wgt id='1106'> +5.8752608e+01 </wgt>
<wgt id='1107'> +1.0147089e+02 </wgt>
<wgt id='1108'> +8.5393080e+01 </wgt>
<wgt id='1109'> +6.6248968e+01 </wgt>
<wgt id='1110'> +1.1441776e+02 </wgt>
<wgt id='1111'> +6.4257819e+01 </wgt>
<wgt id='1112'> +4.9851980e+01 </wgt>
<wgt id='1113'> +8.6098730e+01 </wgt>
<wgt id='1114'> +6.8871986e+01 </wgt>
<wgt id='1115'> +5.7233153e+01 </wgt>
<wgt id='1116'> +6.9519007e+01 </wgt>
<wgt id='1117'> +7.0294778e+01 </wgt>
<wgt id='1118'> +7.0069856e+01 </wgt>
<wgt id='1119'> +6.9828620e+01 </wgt>
<wgt id='1120'> +6.3984829e+01 </wgt>
<wgt id='1121'> +6.9170523e+01 </wgt>
<wgt id='1122'> +7.1751553e+01 </wgt>
<wgt id='1123'> +7.4291540e+01 </wgt>
<wgt id='1124'> +7.1368828e+01 </wgt>
<wgt id='1125'> +7.0215302e+01 </wgt>
<wgt id='1126'> +6.9185255e+01 </wgt>
<wgt id='1127'> +7.0167889e+01 </wgt>
<wgt id='1128'> +6.8553363e+01 </wgt>
<wgt id='1129'> +7.1536130e+01 </wgt>
<wgt id='1130'> +7.0240306e+01 </wgt>
<wgt id='1131'> +6.9971515e+01 </wgt>
<wgt id='1132'> +7.0071990e+01 </wgt>
<wgt id='1133'> +6.7664429e+01 </wgt>
<wgt id='1134'> +7.3773524e+01 </wgt>
<wgt id='1135'> +6.8622057e+01 </wgt>
<wgt id='1136'> +6.5660208e+01 </wgt>
<wgt id='1137'> +6.6676478e+01 </wgt>
<wgt id='1138'> +6.8051726e+01 </wgt>
<wgt id='1139'> +7.0732496e+01 </wgt>
<wgt id='1140'> +6.7057183e+01 </wgt>
<wgt id='1141'> +6.8087493e+01 </wgt>
<wgt id='1142'> +6.7751877e+01 </wgt>
<wgt id='1143'> +6.8563346e+01 </wgt>
<wgt id='1144'> +7.2025907e+01 </wgt>
<wgt id='1145'> +6.5207317e+01 </wgt>
<wgt id='1146'> +7.2945334e+01 </wgt>
<wgt id='1147'> +6.6897324e+01 </wgt>
<wgt id='1148'> +6.8926915e+01 </wgt>
<wgt id='1149'> +6.8536048e+01 </wgt>
<wgt id='1150'> +6.7349242e+01 </wgt>
<wgt id='1151'> +6.9603073e+01 </wgt>
<wgt id='1152'> +7.0760855e+01 </wgt>
<wgt id='1153'> +6.7988560e+01 </wgt>
<wgt id='1154'> +6.7050445e+01 </wgt>
<wgt id='1155'> +6.9648672e+01 </wgt>
<wgt id='1156'> +6.6547177e+01 </wgt>
<wgt id='1157'> +6.5973634e+01 </wgt>
<wgt id='1158'> +6.3849951e+01 </wgt>
<wgt id='1159'> +6.6845349e+01 </wgt>
<wgt id='1160'> +6.4087728e+01 </wgt>
<wgt id='1161'> +6.7256727e+01 </wgt>
<wgt id='1162'> +6.9454559e+01 </wgt>
<wgt id='1163'> +6.8894635e+01 </wgt>
<wgt id='1164'> +6.7310410e+01 </wgt>
<wgt id='1165'> +6.6921505e+01 </wgt>
<wgt id='1166'> +7.1437152e+01 </wgt>
<wgt id='1167'> +7.1114842e+01 </wgt>
<wgt id='1168'> +6.2872034e+01 </wgt>
<wgt id='1169'> +6.5107275e+01 </wgt>
<wgt id='1170'> +6.7263142e+01 </wgt>
<wgt id='1171'> +6.4473540e+01 </wgt>
<wgt id='1172'> +6.9770943e+01 </wgt>
<wgt id='1173'> +7.5281058e+01 </wgt>
<wgt id='1174'> +6.5482011e+01 </wgt>
<wgt id='1175'> +6.7930116e+01 </wgt>
<wgt id='1176'> +7.0575903e+01 </wgt>
<wgt id='1177'> +6.6258835e+01 </wgt>
<wgt id='1178'> +7.1245583e+01 </wgt>
<wgt id='1179'> +6.8279034e+01 </wgt>
<wgt id='1180'> +6.8280184e+01 </wgt>
<wgt id='1181'> +6.2358445e+01 </wgt>
<wgt id='1182'> +7.0608399e+01 </wgt>
<wgt id='1183'> +6.8882767e+01 </wgt>
<wgt id='1184'> +6.7714965e+01 </wgt>
<wgt id='1185'> +7.3257780e+01 </wgt>
<wgt id='1186'> +6.5595892e+01 </wgt>
<wgt id='1187'> +7.7109451e+01 </wgt>
<wgt id='1188'> +7.6652318e+01 </wgt>
<wgt id='1189'> +7.1506559e+01 </wgt>
<wgt id='1190'> +6.3855716e+01 </wgt>
<wgt id='1191'> +7.4137687e+01 </wgt>
<wgt id='1192'> +7.0241479e+01 </wgt>
<wgt id='1193'> +7.0701087e+01 </wgt>
<wgt id='1194'> +6.9263842e+01 </wgt>
<wgt id='1195'> +6.6849142e+01 </wgt>
<wgt id='1196'> +7.0240306e+01 </wgt>
<wgt id='1197'> +6.6708728e+01 </wgt>
<wgt id='1198'> +7.1077591e+01 </wgt>
<wgt id='1199'> +7.2172251e+01 </wgt>
<wgt id='1200'> +6.2274545e+01 </wgt>
<wgt id='1201'> +7.1033720e+01 </wgt>
<wgt id='1202'> +6.8619483e+01 </wgt>
<wgt id='1203'> +7.7693037e+01 </wgt>
<wgt id='1204'> +6.7810889e+01 </wgt>
<wgt id='1205'> +6.6476228e+01 </wgt>
<wgt id='1206'> +7.4399637e+01 </wgt>
<wgt id='1207'> +7.1230099e+01 </wgt>
<wgt id='1208'> +6.7947340e+01 </wgt>
<wgt id='1209'> +6.6867002e+01 </wgt>
<wgt id='1210'> +6.8275250e+01 </wgt>
<wgt id='1211'> +6.3284535e+01 </wgt>
<wgt id='1212'> +7.2176778e+01 </wgt>
<wgt id='1213'> +7.1473982e+01 </wgt>
<wgt id='1214'> +7.0126920e+01 </wgt>
<wgt id='1215'> +7.6957083e+01 </wgt>
<wgt id='1216'> +6.6169335e+01 </wgt>
<wgt id='1217'> +6.6439372e+01 </wgt>
<wgt id='1218'> +6.5815580e+01 </wgt>
<wgt id='1219'> +6.6564137e+01 </wgt>
<wgt id='1220'> +6.6167114e+01 </wgt>
<wgt id='1221'> +6.6595765e+01 </wgt>
<wgt id='1222'> +6.6278653e+01 </wgt>
<wgt id='1223'> +6.6184669e+01 </wgt>
<wgt id='1224'> +6.5811291e+01 </wgt>
<wgt id='1225'> +6.5757961e+01 </wgt>
<wgt id='1226'> +6.6249412e+01 </wgt>
<wgt id='1227'> +6.6370849e+01 </wgt>
<wgt id='1228'> +6.6759341e+01 </wgt>
<wgt id='1229'> +6.5311067e+01 </wgt>
<wgt id='1230'> +6.6163218e+01 </wgt>
<wgt id='1231'> +6.6816175e+01 </wgt>
<wgt id='1232'> +6.5814127e+01 </wgt>
<wgt id='1233'> +6.6971001e+01 </wgt>
<wgt id='1234'> +6.6081148e+01 </wgt>
<wgt id='1235'> +6.5930375e+01 </wgt>
<wgt id='1236'> +6.6569028e+01 </wgt>
<wgt id='1237'> +6.5095734e+01 </wgt>
<wgt id='1238'> +6.6156481e+01 </wgt>
<wgt id='1239'> +6.6153546e+01 </wgt>
<wgt id='1240'> +6.5376792e+01 </wgt>
<wgt id='1241'> +6.6692817e+01 </wgt>
<wgt id='1242'> +6.6308126e+01 </wgt>
<wgt id='1243'> +6.6132116e+01 </wgt>
<wgt id='1244'> +6.6145396e+01 </wgt>
<wgt id='1245'> +6.5392768e+01 </wgt>
<wgt id='1246'> +6.6043713e+01 </wgt>
<wgt id='1247'> +6.6285538e+01 </wgt>
<wgt id='1248'> +6.6406391e+01 </wgt>
<wgt id='1249'> +6.5989677e+01 </wgt>
<wgt id='1250'> +6.6161242e+01 </wgt>
<wgt id='1251'> +6.6201341e+01 </wgt>
<wgt id='1252'> +6.6338095e+01 </wgt>
<wgt id='1253'> +6.6424985e+01 </wgt>
<wgt id='1254'> +6.6408873e+01 </wgt>
<wgt id='1255'> +6.6383684e+01 </wgt>
<wgt id='1256'> +6.6072379e+01 </wgt>
<wgt id='1257'> +6.6825940e+01 </wgt>
<wgt id='1258'> +6.6386799e+01 </wgt>
<wgt id='1259'> +6.6016332e+01 </wgt>
<wgt id='1260'> +6.6477883e+01 </wgt>
<wgt id='1261'> +6.6017434e+01 </wgt>
<wgt id='1262'> +6.6220578e+01 </wgt>
<wgt id='1263'> +6.6387682e+01 </wgt>
<wgt id='1264'> +6.6140864e+01 </wgt>
<wgt id='1265'> +6.5774981e+01 </wgt>
<wgt id='1266'> +6.5985463e+01 </wgt>
<wgt id='1267'> +6.5904935e+01 </wgt>
<wgt id='1268'> +6.6478109e+01 </wgt>
<wgt id='1269'> +6.6322074e+01 </wgt>
<wgt id='1270'> +6.6412479e+01 </wgt>
<wgt id='1271'> +6.6270955e+01 </wgt>
<wgt id='1272'> +6.5741511e+01 </wgt>
<wgt id='1273'> +6.6467558e+01 </wgt>
<wgt id='1274'> +6.6325695e+01 </wgt>
<wgt id='1275'> +6.6160948e+01 </wgt>
<wgt id='1276'> +6.5966068e+01 </wgt>
<wgt id='1277'> +6.5935295e+01 </wgt>
<wgt id='1278'> +6.5833981e+01 </wgt>
<wgt id='1279'> +6.5869132e+01 </wgt>
<wgt id='1280'> +6.6163214e+01 </wgt>
<wgt id='1281'> +6.6124973e+01 </wgt>
<wgt id='1282'> +6.5855788e+01 </wgt>
<wgt id='1283'> +6.6499975e+01 </wgt>
<wgt id='1284'> +6.6346940e+01 </wgt>
<wgt id='1285'> +6.6382431e+01 </wgt>
<wgt id='1286'> +6.6406998e+01 </wgt>
<wgt id='1287'> +6.6013065e+01 </wgt>
<wgt id='1288'> +6.6231125e+01 </wgt>
<wgt id='1289'> +6.6305911e+01 </wgt>
<wgt id='1290'> +6.5794762e+01 </wgt>
<wgt id='1291'> +6.6224166e+01 </wgt>
<wgt id='1292'> +6.6039851e+01 </wgt>
<wgt id='1293'> +6.6035766e+01 </wgt>
<wgt id='1294'> +6.6123885e+01 </wgt>
<wgt id='1295'> +6.6301254e+01 </wgt>
<wgt id='1296'> +6.6133536e+01 </wgt>
<wgt id='1297'> +6.6300649e+01 </wgt>
<wgt id='1298'> +6.6310399e+01 </wgt>
<wgt id='1299'> +6.6156774e+01 </wgt>
<wgt id='1300'> +6.6136768e+01 </wgt>
<wgt id='1301'> +6.5986451e+01 </wgt>
<wgt id='1302'> +6.6225861e+01 </wgt>
<wgt id='1303'> +6.6336512e+01 </wgt>
<wgt id='1304'> +6.6199236e+01 </wgt>
<wgt id='1305'> +6.6222997e+01 </wgt>
<wgt id='1306'> +6.6095731e+01 </wgt>
<wgt id='1307'> +6.6305315e+01 </wgt>
<wgt id='1308'> +6.6263967e+01 </wgt>
<wgt id='1309'> +6.5969450e+01 </wgt>
<wgt id='1310'> +6.6292421e+01 </wgt>
<wgt id='1311'> +6.6204947e+01 </wgt>
<wgt id='1312'> +6.6045556e+01 </wgt>
<wgt id='1313'> +6.6070105e+01 </wgt>
<wgt id='1314'> +6.6322133e+01 </wgt>
<wgt id='1315'> +6.6052037e+01 </wgt>
<wgt id='1316'> +6.6147113e+01 </wgt>
<wgt id='1317'> +6.1895486e+01 </wgt>
<wgt id='1318'> +7.0670447e+01 </wgt>
<wgt id='1319'> +6.2453430e+01 </wgt>
<wgt id='1320'> +7.3943791e+01 </wgt>
<wgt id='1321'> +7.3982915e+01 </wgt>
<wgt id='1322'> +7.4133933e+01 </wgt>
<wgt id='1323'> +7.5971262e+01 </wgt>
<wgt id='1324'> +7.2787977e+01 </wgt>
<wgt id='1325'> +7.4101011e+01 </wgt>
<wgt id='1326'> +7.3752046e+01 </wgt>
<wgt id='1327'> +7.5284707e+01 </wgt>
<wgt id='1328'> +7.3170541e+01 </wgt>
<wgt id='1329'> +7.2127883e+01 </wgt>
<wgt id='1330'> +7.5126441e+01 </wgt>
<wgt id='1331'> +7.5729110e+01 </wgt>
<wgt id='1332'> +7.2846312e+01 </wgt>
<wgt id='1333'> +7.0613807e+01 </wgt>
<wgt id='1334'> +7.5919634e+01 </wgt>
<wgt id='1335'> +7.5084299e+01 </wgt>
<wgt id='1336'> +7.3185526e+01 </wgt>
<wgt id='1337'> +7.2801880e+01 </wgt>
<wgt id='1338'> +7.5298398e+01 </wgt>
<wgt id='1339'> +7.5259022e+01 </wgt>
<wgt id='1340'> +7.2493740e+01 </wgt>
<wgt id='1341'> +7.4277250e+01 </wgt>
<wgt id='1342'> +7.3258064e+01 </wgt>
<wgt id='1343'> +7.3404300e+01 </wgt>
<wgt id='1344'> +7.4432992e+01 </wgt>
<wgt id='1345'> +7.3059101e+01 </wgt>
<wgt id='1346'> +7.4733137e+01 </wgt>
<wgt id='1347'> +7.3646161e+01 </wgt>
<wgt id='1348'> +7.4343437e+01 </wgt>
<wgt id='1349'> +7.3218236e+01 </wgt>
<wgt id='1350'> +7.4195246e+01 </wgt>
<wgt id='1351'> +7.4141375e+01 </wgt>
<wgt id='1352'> +7.3686046e+01 </wgt>
<wgt id='1353'> +7.3733269e+01 </wgt>
<wgt id='1354'> +7.4382424e+01 </wgt>
<wgt id='1355'> +7.5116667e+01 </wgt>
<wgt id='1356'> +7.2811788e+01 </wgt>
<wgt id='1357'> +7.4723354e+01 </wgt>
<wgt id='1358'> +7.2694005e+01 </wgt>
<wgt id='1359'> +7.3960541e+01 </wgt>
<wgt id='1360'> +7.3835432e+01 </wgt>
<wgt id='1361'> +7.4669009e+01 </wgt>
<wgt id='1362'> +7.3257398e+01 </wgt>
<wgt id='1363'> +7.4983365e+01 </wgt>
<wgt id='1364'> +7.3072436e+01 </wgt>
<wgt id='1365'> +7.2645359e+01 </wgt>
<wgt id='1366'> +7.3708171e+01 </wgt>
<wgt id='1367'> +7.2808853e+01 </wgt>
<wgt id='1368'> +7.4532419e+01 </wgt>
<wgt id='1369'> +7.3963582e+01 </wgt>
<wgt id='1370'> +7.2215316e+01 </wgt>
<wgt id='1371'> +7.3840986e+01 </wgt>
<wgt id='1372'> +7.3803413e+01 </wgt>
<wgt id='1373'> +7.2015952e+01 </wgt>
<wgt id='1374'> +7.4705361e+01 </wgt>
<wgt id='1375'> +7.3173482e+01 </wgt>
<wgt id='1376'> +7.4903289e+01 </wgt>
<wgt id='1377'> +6.9796348e+01 </wgt>
<wgt id='1378'> +7.8064770e+01 </wgt>
<wgt id='1379'> +7.5141266e+01 </wgt>
<wgt id='1380'> +7.1227142e+01 </wgt>
<wgt id='1381'> +7.8797807e+01 </wgt>
<wgt id='1382'> +5.6961307e+01 </wgt>
<wgt id='1383'> +7.3949328e+01 </wgt>
<wgt id='1384'> +7.3600049e+01 </wgt>
<wgt id='1385'> +9.7448994e+01 </wgt>
<wgt id='1386'> +9.7614900e+01 </wgt>
<wgt id='1387'> +9.7255822e+01 </wgt>
<wgt id='1388'> +9.6765205e+01 </wgt>
<wgt id='1389'> +9.8622187e+01 </wgt>
<wgt id='1390'> +9.7207651e+01 </wgt>
<wgt id='1391'> +9.7730679e+01 </wgt>
<wgt id='1392'> +9.7521220e+01 </wgt>
<wgt id='1393'> +9.7400272e+01 </wgt>
<wgt id='1394'> +9.6958296e+01 </wgt>
<wgt id='1395'> +9.8050630e+01 </wgt>
<wgt id='1396'> +9.6352416e+01 </wgt>
<wgt id='1397'> +9.8016021e+01 </wgt>
<wgt id='1398'> +9.7700873e+01 </wgt>
<wgt id='1399'> +9.7241795e+01 </wgt>
<wgt id='1400'> +9.7162153e+01 </wgt>
<wgt id='1401'> +9.7652551e+01 </wgt>
<wgt id='1402'> +9.7167358e+01 </wgt>
<wgt id='1403'> +9.7573671e+01 </wgt>
<wgt id='1404'> +9.8726562e+01 </wgt>
<wgt id='1405'> +9.6829237e+01 </wgt>
<wgt id='1406'> +9.7346612e+01 </wgt>
<wgt id='1407'> +9.7627777e+01 </wgt>
<wgt id='1408'> +9.7432965e+01 </wgt>
<wgt id='1409'> +9.7478259e+01 </wgt>
<wgt id='1410'> +9.7409516e+01 </wgt>
<wgt id='1411'> +9.7474280e+01 </wgt>
<wgt id='1412'> +9.8518076e+01 </wgt>
<wgt id='1413'> +9.6101033e+01 </wgt>
<wgt id='1414'> +9.7988254e+01 </wgt>
<wgt id='1415'> +9.7096346e+01 </wgt>
<wgt id='1416'> +9.7570672e+01 </wgt>
<wgt id='1417'> +9.7375374e+01 </wgt>
<wgt id='1418'> +9.7813445e+01 </wgt>
<wgt id='1419'> +9.6670469e+01 </wgt>
<wgt id='1420'> +9.6732280e+01 </wgt>
<wgt id='1421'> +9.7511524e+01 </wgt>
<wgt id='1422'> +9.7731542e+01 </wgt>
<wgt id='1423'> +9.7120999e+01 </wgt>
<wgt id='1424'> +9.7745473e+01 </wgt>
<wgt id='1425'> +9.6687781e+01 </wgt>
<wgt id='1426'> +9.7656562e+01 </wgt>
<wgt id='1427'> +9.7251677e+01 </wgt>
<wgt id='1428'> +9.7874465e+01 </wgt>
<wgt id='1429'> +9.7468358e+01 </wgt>
<wgt id='1430'> +9.7470601e+01 </wgt>
<wgt id='1431'> +9.7428010e+01 </wgt>
<wgt id='1432'> +9.7405248e+01 </wgt>
<wgt id='1433'> +9.7485739e+01 </wgt>
<wgt id='1434'> +9.7361681e+01 </wgt>
<wgt id='1435'> +9.7545529e+01 </wgt>
<wgt id='1436'> +0.0000000e+00 </wgt>
<wgt id='1437'> +0.0000000e+00 </wgt>
<wgt id='1438'> +0.0000000e+00 </wgt>
<wgt id='1439'> +0.0000000e+00 </wgt>
<wgt id='1440'> +0.0000000e+00 </wgt>
<wgt id='1441'> +0.0000000e+00 </wgt>
<wgt id='1442'> +0.0000000e+00 </wgt>
<wgt id='1443'> +0.0000000e+00 </wgt>
<wgt id='1444'> +0.0000000e+00 </wgt>
<wgt id='1445'> +0.0000000e+00 </wgt>
<wgt id='1446'> +0.0000000e+00 </wgt>
<wgt id='1447'> +0.0000000e+00 </wgt>
<wgt id='1448'> +0.0000000e+00 </wgt>
<wgt id='1449'> +0.0000000e+00 </wgt>
<wgt id='1450'> +0.0000000e+00 </wgt>
<wgt id='1451'> +0.0000000e+00 </wgt>
<wgt id='1452'> +0.0000000e+00 </wgt>
<wgt id='1453'> +0.0000000e+00 </wgt>
<wgt id='1454'> +0.0000000e+00 </wgt>
<wgt id='1455'> +0.0000000e+00 </wgt>
<wgt id='1456'> +0.0000000e+00 </wgt>
<wgt id='1457'> +0.0000000e+00 </wgt>
<wgt id='1458'> +0.0000000e+00 </wgt>
<wgt id='1459'> +0.0000000e+00 </wgt>
<wgt id='1460'> +0.0000000e+00 </wgt>
<wgt id='1461'> +0.0000000e+00 </wgt>
<wgt id='1462'> +0.0000000e+00 </wgt>
<wgt id='1463'> +0.0000000e+00 </wgt>
<wgt id='1464'> +0.0000000e+00 </wgt>
<wgt id='1465'> +7.4558469e+01 </wgt>
<wgt id='1466'> +7.4534834e+01 </wgt>
<wgt id='1467'> +7.4141016e+01 </wgt>
<wgt id='1468'> +7.5333325e+01 </wgt>
<wgt id='1469'> +7.4989996e+01 </wgt>
<wgt id='1470'> +7.4255071e+01 </wgt>
<wgt id='1471'> +7.4359525e+01 </wgt>
<wgt id='1472'> +7.4391614e+01 </wgt>
<wgt id='1473'> +7.4757083e+01 </wgt>
<wgt id='1474'> +7.5000744e+01 </wgt>
<wgt id='1475'> +7.4255235e+01 </wgt>
<wgt id='1476'> +7.6030498e+01 </wgt>
<wgt id='1477'> +7.4453636e+01 </wgt>
<wgt id='1478'> +7.3321973e+01 </wgt>
<wgt id='1479'> +7.5028479e+01 </wgt>
<wgt id='1480'> +7.3516699e+01 </wgt>
<wgt id='1481'> +7.4680298e+01 </wgt>
<wgt id='1482'> +7.4461463e+01 </wgt>
<wgt id='1483'> +7.4093684e+01 </wgt>
<wgt id='1484'> +7.4528083e+01 </wgt>
<wgt id='1485'> +7.4225136e+01 </wgt>
<wgt id='1486'> +7.4268489e+01 </wgt>
<wgt id='1487'> +7.4401858e+01 </wgt>
<wgt id='1488'> +7.4721692e+01 </wgt>
<wgt id='1489'> +7.4260997e+01 </wgt>
<wgt id='1490'> +7.4580844e+01 </wgt>
<wgt id='1491'> +7.4900921e+01 </wgt>
<wgt id='1492'> +7.4583240e+01 </wgt>
<wgt id='1493'> +7.4464828e+01 </wgt>
<wgt id='1494'> +7.4522857e+01 </wgt>
<wgt id='1495'> +7.4517863e+01 </wgt>
<wgt id='1496'> +7.4518167e+01 </wgt>
<wgt id='1497'> +7.4517095e+01 </wgt>
<wgt id='1498'> +7.4550230e+01 </wgt>
<wgt id='1499'> +7.4533379e+01 </wgt>
<wgt id='1500'> +7.4652898e+01 </wgt>
<wgt id='1501'> +7.4584708e+01 </wgt>
<wgt id='1502'> +7.4485603e+01 </wgt>
<wgt id='1503'> +7.4556031e+01 </wgt>
<wgt id='1504'> +7.4441669e+01 </wgt>
<wgt id='1505'> +7.4560265e+01 </wgt>
<wgt id='1506'> +7.4583563e+01 </wgt>
<wgt id='1507'> +7.4522785e+01 </wgt>
<wgt id='1508'> +7.4549716e+01 </wgt>
<wgt id='1509'> +7.4489159e+01 </wgt>
<wgt id='1510'> +7.4596601e+01 </wgt>
<wgt id='1511'> +7.4557266e+01 </wgt>
<wgt id='1512'> +7.4520724e+01 </wgt>
<wgt id='1513'> +7.4594171e+01 </wgt>
<wgt id='1514'> +7.4492041e+01 </wgt>
<wgt id='1515'> +7.4540028e+01 </wgt>
<wgt id='1516'> +7.4515138e+01 </wgt>
<wgt id='1517'> +7.4476885e+01 </wgt>
<wgt id='1518'> +7.4522876e+01 </wgt>
<wgt id='1519'> +7.4508368e+01 </wgt>
<wgt id='1520'> +7.4513540e+01 </wgt>
<wgt id='1521'> +7.4518101e+01 </wgt>
<wgt id='1522'> +7.4553284e+01 </wgt>
<wgt id='1523'> +7.4520765e+01 </wgt>
<wgt id='1524'> +7.4547098e+01 </wgt>
<wgt id='1525'> +7.4527068e+01 </wgt>
<wgt id='1526'> +7.4518352e+01 </wgt>
<wgt id='1527'> +7.4529984e+01 </wgt>
<wgt id='1528'> +7.4508489e+01 </wgt>
<wgt id='1529'> +7.4532430e+01 </wgt>
<wgt id='1530'> +7.4517316e+01 </wgt>
<wgt id='1531'> +7.4519334e+01 </wgt>
<wgt id='1532'> +7.4601272e+01 </wgt>
<wgt id='1533'> +7.4572324e+01 </wgt>
<wgt id='1534'> +7.4547115e+01 </wgt>
<wgt id='1535'> +7.4539679e+01 </wgt>
<wgt id='1536'> +7.4494982e+01 </wgt>
<wgt id='1537'> +7.4553493e+01 </wgt>
<wgt id='1538'> +7.4525527e+01 </wgt>
<wgt id='1539'> +7.4481982e+01 </wgt>
<wgt id='1540'> +7.4510029e+01 </wgt>
<wgt id='1541'> +7.4546925e+01 </wgt>
<wgt id='1542'> +7.4560037e+01 </wgt>
<wgt id='1543'> +7.4473492e+01 </wgt>
<wgt id='1544'> +7.4551500e+01 </wgt>
<wgt id='1545'> +7.4565049e+01 </wgt>
<wgt id='1546'> +7.4521432e+01 </wgt>
<wgt id='1547'> +7.4503612e+01 </wgt>
<wgt id='1548'> +7.4558512e+01 </wgt>
<wgt id='1549'> +7.4547663e+01 </wgt>
<wgt id='1550'> +7.4568664e+01 </wgt>
<wgt id='1551'> +7.4528793e+01 </wgt>
<wgt id='1552'> +7.4608737e+01 </wgt>
<wgt id='1553'> +7.4562030e+01 </wgt>
<wgt id='1554'> +7.4543346e+01 </wgt>
<wgt id='1555'> +7.4549460e+01 </wgt>
<wgt id='1556'> +7.4527031e+01 </wgt>
<wgt id='1557'> +7.4484755e+01 </wgt>
<wgt id='1558'> +7.4530028e+01 </wgt>
<wgt id='1559'> +7.4520414e+01 </wgt>
<wgt id='1560'> +7.4506463e+01 </wgt>
<wgt id='1561'> +7.4513242e+01 </wgt>
<wgt id='1562'> +7.4500657e+01 </wgt>
<wgt id='1563'> +7.4564337e+01 </wgt>
<wgt id='1564'> +7.4540343e+01 </wgt>
<wgt id='1565'> +7.4556580e+01 </wgt>
<wgt id='1566'> +7.4540488e+01 </wgt>
<wgt id='1567'> +7.1544441e+01 </wgt>
<wgt id='1568'> +7.7376539e+01 </wgt>
<wgt id='1569'> +7.5224002e+01 </wgt>
<wgt id='1570'> +7.4969973e+01 </wgt>
<wgt id='1571'> +7.5677090e+01 </wgt>
<wgt id='1572'> +7.4371568e+01 </wgt>
<wgt id='1573'> +7.4934076e+01 </wgt>
<wgt id='1574'> +7.5689100e+01 </wgt>
<wgt id='1575'> +7.5115266e+01 </wgt>
<wgt id='1576'> +7.5317673e+01 </wgt>
<wgt id='1577'> +7.5351661e+01 </wgt>
<wgt id='1578'> +7.5188192e+01 </wgt>
<wgt id='1579'> +7.4858041e+01 </wgt>
<wgt id='1580'> +7.6697417e+01 </wgt>
<wgt id='1581'> +7.4405859e+01 </wgt>
<wgt id='1582'> +7.3869312e+01 </wgt>
<wgt id='1583'> +7.4146885e+01 </wgt>
<wgt id='1584'> +7.4732007e+01 </wgt>
<wgt id='1585'> +7.6274017e+01 </wgt>
<wgt id='1586'> +7.5047982e+01 </wgt>
<wgt id='1587'> +7.5049929e+01 </wgt>
<wgt id='1588'> +7.5295122e+01 </wgt>
<wgt id='1589'> +7.5848348e+01 </wgt>
<wgt id='1590'> +7.4976215e+01 </wgt>
<wgt id='1591'> +7.5301894e+01 </wgt>
<wgt id='1592'> +7.5119058e+01 </wgt>
<wgt id='1593'> +7.4992330e+01 </wgt>
<wgt id='1594'> +7.5102768e+01 </wgt>
<wgt id='1595'> +7.5021420e+01 </wgt>
<wgt id='1596'> +7.5349799e+01 </wgt>
<wgt id='1597'> +7.5379215e+01 </wgt>
<wgt id='1598'> +7.5217068e+01 </wgt>
<wgt id='1599'> +7.5131520e+01 </wgt>
<wgt id='1600'> +7.5437680e+01 </wgt>
<wgt id='1601'> +7.5222023e+01 </wgt>
<wgt id='1602'> +7.5251167e+01 </wgt>
<wgt id='1603'> +7.5181632e+01 </wgt>
<wgt id='1604'> +7.5280008e+01 </wgt>
<wgt id='1605'> +7.5233234e+01 </wgt>
<wgt id='1606'> +7.5303482e+01 </wgt>
<wgt id='1607'> +7.5208719e+01 </wgt>
<wgt id='1608'> +7.5147526e+01 </wgt>
<wgt id='1609'> +7.5148089e+01 </wgt>
<wgt id='1610'> +7.5134315e+01 </wgt>
<wgt id='1611'> +7.5168531e+01 </wgt>
<wgt id='1612'> +7.5295617e+01 </wgt>
<wgt id='1613'> +7.5222709e+01 </wgt>
<wgt id='1614'> +7.5181316e+01 </wgt>
<wgt id='1615'> +7.5195877e+01 </wgt>
<wgt id='1616'> +7.5144102e+01 </wgt>
<wgt id='1617'> +7.5284656e+01 </wgt>
<wgt id='1618'> +7.5161288e+01 </wgt>
<wgt id='1619'> +7.5259920e+01 </wgt>
<wgt id='1620'> +7.5235569e+01 </wgt>
<wgt id='1621'> +7.5230405e+01 </wgt>
<wgt id='1622'> +7.5251623e+01 </wgt>
<wgt id='1623'> +7.5225143e+01 </wgt>
<wgt id='1624'> +7.5237826e+01 </wgt>
<wgt id='1625'> +7.5208365e+01 </wgt>
<wgt id='1626'> +7.5216396e+01 </wgt>
<wgt id='1627'> +7.5253752e+01 </wgt>
<wgt id='1628'> +7.5236423e+01 </wgt>
<wgt id='1629'> +7.5244393e+01 </wgt>
<wgt id='1630'> +7.5245269e+01 </wgt>
<wgt id='1631'> +7.5215852e+01 </wgt>
<wgt id='1632'> +7.5221438e+01 </wgt>
<wgt id='1633'> +7.5231396e+01 </wgt>
<wgt id='1634'> +7.5213713e+01 </wgt>
<wgt id='1635'> +7.5222959e+01 </wgt>
<wgt id='1636'> +7.5210681e+01 </wgt>
<wgt id='1637'> +7.5246682e+01 </wgt>
<wgt id='1638'> +7.5222029e+01 </wgt>
<wgt id='1639'> +7.5204625e+01 </wgt>
<wgt id='1640'> +7.5284511e+01 </wgt>
<wgt id='1641'> +7.5245190e+01 </wgt>
<wgt id='1642'> +7.5184556e+01 </wgt>
<wgt id='1643'> +7.5231822e+01 </wgt>
<wgt id='1644'> +7.5225126e+01 </wgt>
<wgt id='1645'> +7.5269617e+01 </wgt>
<wgt id='1646'> +7.5241275e+01 </wgt>
<wgt id='1647'> +7.5266364e+01 </wgt>
<wgt id='1648'> +7.5216320e+01 </wgt>
<wgt id='1649'> +7.5217483e+01 </wgt>
<wgt id='1650'> +7.5260454e+01 </wgt>
<wgt id='1651'> +7.5252236e+01 </wgt>
<wgt id='1652'> +7.5202153e+01 </wgt>
<wgt id='1653'> +7.5189818e+01 </wgt>
<wgt id='1654'> +7.5224020e+01 </wgt>
<wgt id='1655'> +7.5278140e+01 </wgt>
<wgt id='1656'> +7.5174051e+01 </wgt>
<wgt id='1657'> +7.5188773e+01 </wgt>
<wgt id='1658'> +7.5187447e+01 </wgt>
<wgt id='1659'> +7.5222819e+01 </wgt>
<wgt id='1660'> +7.5192102e+01 </wgt>
<wgt id='1661'> +7.5199562e+01 </wgt>
<wgt id='1662'> +7.5221816e+01 </wgt>
<wgt id='1663'> +7.5185781e+01 </wgt>
<wgt id='1664'> +7.5233872e+01 </wgt>
<wgt id='1665'> +7.5224156e+01 </wgt>
<wgt id='1666'> +7.5232309e+01 </wgt>
<wgt id='1667'> +7.5217572e+01 </wgt>
<wgt id='1668'> +7.5222755e+01 </wgt>
<wgt id='1669'> +7.5231025e+01 </wgt>
<wgt id='1670'> +7.2547706e+01 </wgt>
<wgt id='1671'> +7.7470667e+01 </wgt>
<wgt id='1672'> +7.4574945e+01 </wgt>
<wgt id='1673'> +7.4599100e+01 </wgt>
<wgt id='1674'> +7.3838915e+01 </wgt>
<wgt id='1675'> +7.4545024e+01 </wgt>
<wgt id='1676'> +7.4004528e+01 </wgt>
<wgt id='1677'> +7.6906366e+01 </wgt>
<wgt id='1678'> +7.4111201e+01 </wgt>
<wgt id='1679'> +7.4583528e+01 </wgt>
<wgt id='1680'> +7.4729879e+01 </wgt>
<wgt id='1681'> +7.4408141e+01 </wgt>
<wgt id='1682'> +7.4678158e+01 </wgt>
<wgt id='1683'> +7.4466400e+01 </wgt>
<wgt id='1684'> +7.4686759e+01 </wgt>
<wgt id='1685'> +7.4597295e+01 </wgt>
<wgt id='1686'> +7.4450541e+01 </wgt>
<wgt id='1687'> +7.4734425e+01 </wgt>
<wgt id='1688'> +7.4506144e+01 </wgt>
<wgt id='1689'> +7.4269630e+01 </wgt>
<wgt id='1690'> +7.4727381e+01 </wgt>
<wgt id='1691'> +7.4677058e+01 </wgt>
<wgt id='1692'> +7.4742500e+01 </wgt>
<wgt id='1693'> +7.4511798e+01 </wgt>
<wgt id='1694'> +7.4448413e+01 </wgt>
<wgt id='1695'> +7.4571980e+01 </wgt>
<wgt id='1696'> +7.4313940e+01 </wgt>
<wgt id='1697'> +7.4603491e+01 </wgt>
<wgt id='1698'> +7.4569895e+01 </wgt>
<wgt id='1699'> +7.4724275e+01 </wgt>
<wgt id='1700'> +7.4825816e+01 </wgt>
<wgt id='1701'> +7.4714626e+01 </wgt>
<wgt id='1702'> +7.4619032e+01 </wgt>
<wgt id='1703'> +7.1544441e+01 </wgt>
<wgt id='1704'> +7.7376539e+01 </wgt>
<wgt id='1705'> +7.5224860e+01 </wgt>
<wgt id='1706'> +7.4644094e+01 </wgt>
<wgt id='1707'> +7.5471297e+01 </wgt>
<wgt id='1708'> +7.5050376e+01 </wgt>
<wgt id='1709'> +7.5702630e+01 </wgt>
<wgt id='1710'> +7.3803703e+01 </wgt>
<wgt id='1711'> +7.5200951e+01 </wgt>
<wgt id='1712'> +7.5011692e+01 </wgt>
<wgt id='1713'> +7.4736957e+01 </wgt>
<wgt id='1714'> +7.4916768e+01 </wgt>
<wgt id='1715'> +7.5402666e+01 </wgt>
<wgt id='1716'> +7.4982754e+01 </wgt>
<wgt id='1717'> +7.5388245e+01 </wgt>
<wgt id='1718'> +7.5440410e+01 </wgt>
<wgt id='1719'> +7.4944147e+01 </wgt>
<wgt id='1720'> +7.4788416e+01 </wgt>
<wgt id='1721'> +7.4789777e+01 </wgt>
<wgt id='1722'> +7.6115804e+01 </wgt>
<wgt id='1723'> +7.5200966e+01 </wgt>
<wgt id='1724'> +7.5124716e+01 </wgt>
<wgt id='1725'> +7.5729343e+01 </wgt>
<wgt id='1726'> +7.5567662e+01 </wgt>
<wgt id='1727'> +7.7245279e+01 </wgt>
<wgt id='1728'> +7.5326281e+01 </wgt>
<wgt id='1729'> +7.5411386e+01 </wgt>
<wgt id='1730'> +7.5097253e+01 </wgt>
<wgt id='1731'> +7.5341232e+01 </wgt>
<wgt id='1732'> +7.5382857e+01 </wgt>
<wgt id='1733'> +7.5459590e+01 </wgt>
<wgt id='1734'> +7.5179343e+01 </wgt>
<wgt id='1735'> +7.5260274e+01 </wgt>
<wgt id='1736'> +7.2547706e+01 </wgt>
<wgt id='1737'> +7.7470667e+01 </wgt>
<wgt id='1738'> +7.5933375e+01 </wgt>
<wgt id='1739'> +7.5793524e+01 </wgt>
<wgt id='1740'> +7.6072662e+01 </wgt>
<wgt id='1741'> +7.6157996e+01 </wgt>
<wgt id='1742'> +7.5709081e+01 </wgt>
<wgt id='1743'> +7.6089568e+01 </wgt>
<wgt id='1744'> +7.5777497e+01 </wgt>
<wgt id='1745'> +7.6268990e+01 </wgt>
<wgt id='1746'> +7.5606353e+01 </wgt>
<wgt id='1747'> +7.6036337e+01 </wgt>
<wgt id='1748'> +7.5834083e+01 </wgt>
<wgt id='1749'> +7.5678944e+01 </wgt>
<wgt id='1750'> +7.6209960e+01 </wgt>
<wgt id='1751'> +7.5562350e+01 </wgt>
<wgt id='1752'> +7.6309206e+01 </wgt>
<wgt id='1753'> +7.5920498e+01 </wgt>
<wgt id='1754'> +7.5817614e+01 </wgt>
<wgt id='1755'> +7.6251278e+01 </wgt>
<wgt id='1756'> +7.5618113e+01 </wgt>
<wgt id='1757'> +7.5632326e+01 </wgt>
<wgt id='1758'> +7.6212047e+01 </wgt>
<wgt id='1759'> +7.6332633e+01 </wgt>
<wgt id='1760'> +7.5441040e+01 </wgt>
<wgt id='1761'> +7.5500713e+01 </wgt>
<wgt id='1762'> +7.5927347e+01 </wgt>
<wgt id='1763'> +7.6153149e+01 </wgt>
<wgt id='1764'> +7.5832995e+01 </wgt>
<wgt id='1765'> +7.5992471e+01 </wgt>
<wgt id='1766'> +7.5968316e+01 </wgt>
<wgt id='1767'> +7.5933375e+01 </wgt>
<wgt id='1768'> +7.5926893e+01 </wgt>
<wgt id='1769'> +7.5885256e+01 </wgt>
<wgt id='1770'> +7.5911768e+01 </wgt>
<wgt id='1771'> +7.5901597e+01 </wgt>
<wgt id='1772'> +7.6257229e+01 </wgt>
<wgt id='1773'> +7.5236768e+01 </wgt>
<wgt id='1774'> +7.5553971e+01 </wgt>
<wgt id='1775'> +7.6293462e+01 </wgt>
<wgt id='1776'> +7.7146308e+01 </wgt>
<wgt id='1777'> +7.4809502e+01 </wgt>
<wgt id='1778'> +7.5926272e+01 </wgt>
<wgt id='1779'> +7.4729525e+01 </wgt>
<wgt id='1780'> +7.4965151e+01 </wgt>
<wgt id='1781'> +7.3140075e+01 </wgt>
<wgt id='1782'> +7.3054989e+01 </wgt>
<wgt id='1783'> +7.3210890e+01 </wgt>
<wgt id='1784'> +7.3255572e+01 </wgt>
<wgt id='1785'> +7.3010824e+01 </wgt>
<wgt id='1786'> +7.3348683e+01 </wgt>
<wgt id='1787'> +7.2917998e+01 </wgt>
<wgt id='1788'> +7.3601472e+01 </wgt>
<wgt id='1789'> +7.2676227e+01 </wgt>
<wgt id='1790'> +7.3085299e+01 </wgt>
<wgt id='1791'> +7.3186424e+01 </wgt>
<wgt id='1792'> +7.3380921e+01 </wgt>
<wgt id='1793'> +7.2886943e+01 </wgt>
<wgt id='1794'> +7.2888319e+01 </wgt>
<wgt id='1795'> +7.3376177e+01 </wgt>
<wgt id='1796'> +7.2972574e+01 </wgt>
<wgt id='1797'> +7.3200081e+01 </wgt>
<wgt id='1798'> +7.3125191e+01 </wgt>
<wgt id='1799'> +7.3124629e+01 </wgt>
<wgt id='1800'> +7.2971089e+01 </wgt>
<wgt id='1801'> +7.3292146e+01 </wgt>
<wgt id='1802'> +7.2372456e+01 </wgt>
<wgt id='1803'> +7.3774871e+01 </wgt>
<wgt id='1804'> +7.3129095e+01 </wgt>
<wgt id='1805'> +7.3116713e+01 </wgt>
<wgt id='1806'> +7.2742113e+01 </wgt>
<wgt id='1807'> +7.3290362e+01 </wgt>
<wgt id='1808'> +7.3079751e+01 </wgt>
<wgt id='1809'> +7.3292758e+01 </wgt>
<wgt id='1810'> +7.3033183e+01 </wgt>
<wgt id='1811'> +7.3097958e+01 </wgt>
<wgt id='1812'> +7.2790047e+01 </wgt>
<wgt id='1813'> +7.3065988e+01 </wgt>
<wgt id='1814'> +7.2957596e+01 </wgt>
<wgt id='1815'> +7.2779190e+01 </wgt>
<wgt id='1816'> +7.2848725e+01 </wgt>
<wgt id='1817'> +7.2684808e+01 </wgt>
<wgt id='1818'> +7.3576333e+01 </wgt>
<wgt id='1819'> +7.3980019e+01 </wgt>
<wgt id='1820'> +7.1837778e+01 </wgt>
<wgt id='1821'> +7.2694067e+01 </wgt>
<wgt id='1822'> +7.2672007e+01 </wgt>
<wgt id='1823'> +7.2496457e+01 </wgt>
<wgt id='1824'> +7.3379751e+01 </wgt>
<wgt id='1825'> +7.3371635e+01 </wgt>
<wgt id='1826'> +7.3363467e+01 </wgt>
<wgt id='1827'> +7.3355088e+01 </wgt>
<wgt id='1828'> +7.3346898e+01 </wgt>
<wgt id='1829'> +7.3338763e+01 </wgt>
<wgt id='1830'> +7.3330570e+01 </wgt>
<wgt id='1831'> +7.3322126e+01 </wgt>
<wgt id='1832'> +7.3314027e+01 </wgt>
<wgt id='1833'> +7.3305842e+01 </wgt>
<wgt id='1834'> +7.3297490e+01 </wgt>
<wgt id='1835'> +7.3289088e+01 </wgt>
<wgt id='1836'> +7.3281187e+01 </wgt>
<wgt id='1837'> +7.3272940e+01 </wgt>
<wgt id='1838'> +7.3264809e+01 </wgt>
<wgt id='1839'> +7.3256428e+01 </wgt>
<wgt id='1840'> +7.3248263e+01 </wgt>
<wgt id='1841'> +7.3240078e+01 </wgt>
<wgt id='1842'> +7.3231962e+01 </wgt>
<wgt id='1843'> +7.3223602e+01 </wgt>
<wgt id='1844'> +7.3215415e+01 </wgt>
<wgt id='1845'> +7.3207233e+01 </wgt>
<wgt id='1846'> +7.3198844e+01 </wgt>
<wgt id='1847'> +7.3190428e+01 </wgt>
<wgt id='1848'> +7.3182326e+01 </wgt>
<wgt id='1849'> +7.3174406e+01 </wgt>
<wgt id='1850'> +7.3166228e+01 </wgt>
<wgt id='1851'> +7.3157849e+01 </wgt>
<wgt id='1852'> +7.3149696e+01 </wgt>
<wgt id='1853'> +7.3141560e+01 </wgt>
<wgt id='1854'> +7.3133352e+01 </wgt>
<wgt id='1855'> +7.4464665e+01 </wgt>
<wgt id='1856'> +7.4195787e+01 </wgt>
<wgt id='1857'> +7.4915750e+01 </wgt>
<wgt id='1858'> +7.3614452e+01 </wgt>
<wgt id='1859'> +7.4171792e+01 </wgt>
<wgt id='1860'> +7.4920593e+01 </wgt>
<wgt id='1861'> +7.4366594e+01 </wgt>
<wgt id='1862'> +7.4574149e+01 </wgt>
<wgt id='1863'> +7.4592604e+01 </wgt>
<wgt id='1864'> +7.4426970e+01 </wgt>
<wgt id='1865'> +7.4092758e+01 </wgt>
<wgt id='1866'> +7.5942254e+01 </wgt>
<wgt id='1867'> +7.3663842e+01 </wgt>
<wgt id='1868'> +7.3121681e+01 </wgt>
<wgt id='1869'> +7.3403348e+01 </wgt>
<wgt id='1870'> +7.3965144e+01 </wgt>
<wgt id='1871'> +7.5525157e+01 </wgt>
<wgt id='1872'> +7.4281377e+01 </wgt>
<wgt id='1873'> +7.4288023e+01 </wgt>
<wgt id='1874'> +7.4545153e+01 </wgt>
<wgt id='1875'> +7.5091643e+01 </wgt>
<wgt id='1876'> +7.4212812e+01 </wgt>
<wgt id='1877'> +7.4539070e+01 </wgt>
<wgt id='1878'> +7.4362899e+01 </wgt>
<wgt id='1879'> +7.4228785e+01 </wgt>
<wgt id='1880'> +7.4336876e+01 </wgt>
<wgt id='1881'> +7.4253923e+01 </wgt>
<wgt id='1882'> +7.4598101e+01 </wgt>
<wgt id='1883'> +7.4622745e+01 </wgt>
<wgt id='1884'> +7.4452852e+01 </wgt>
<wgt id='1885'> +7.4365417e+01 </wgt>
<wgt id='1886'> +7.4685434e+01 </wgt>
<wgt id='1887'> +7.4457792e+01 </wgt>
<wgt id='1888'> +7.4486371e+01 </wgt>
<wgt id='1889'> +7.4422886e+01 </wgt>
<wgt id='1890'> +7.4517448e+01 </wgt>
<wgt id='1891'> +7.4474899e+01 </wgt>
<wgt id='1892'> +7.4541660e+01 </wgt>
<wgt id='1893'> +7.4447580e+01 </wgt>
<wgt id='1894'> +7.4384153e+01 </wgt>
<wgt id='1895'> +7.4389204e+01 </wgt>
<wgt id='1896'> +7.4376382e+01 </wgt>
<wgt id='1897'> +7.4411160e+01 </wgt>
<wgt id='1898'> +7.4539154e+01 </wgt>
<wgt id='1899'> +7.4462013e+01 </wgt>
<wgt id='1900'> +7.4423603e+01 </wgt>
<wgt id='1901'> +7.4439433e+01 </wgt>
<wgt id='1902'> +7.4385966e+01 </wgt>
<wgt id='1903'> +7.4527236e+01 </wgt>
<wgt id='1904'> +7.4403304e+01 </wgt>
<wgt id='1905'> +7.4501034e+01 </wgt>
<wgt id='1906'> +7.4474455e+01 </wgt>
<wgt id='1907'> +7.4471051e+01 </wgt>
<wgt id='1908'> +7.4489681e+01 </wgt>
<wgt id='1909'> +7.4466760e+01 </wgt>
<wgt id='1910'> +7.4479270e+01 </wgt>
<wgt id='1911'> +7.4446201e+01 </wgt>
<wgt id='1912'> +7.4458716e+01 </wgt>
<wgt id='1913'> +7.4496058e+01 </wgt>
<wgt id='1914'> +7.4478278e+01 </wgt>
<wgt id='1915'> +7.4487057e+01 </wgt>
<wgt id='1916'> +7.4486313e+01 </wgt>
<wgt id='1917'> +7.4456251e+01 </wgt>
<wgt id='1918'> +7.4459521e+01 </wgt>
<wgt id='1919'> +7.4474581e+01 </wgt>
<wgt id='1920'> +7.4453459e+01 </wgt>
<wgt id='1921'> +7.4462250e+01 </wgt>
<wgt id='1922'> +7.4449910e+01 </wgt>
<wgt id='1923'> +7.4487045e+01 </wgt>
<wgt id='1924'> +7.4460525e+01 </wgt>
<wgt id='1925'> +7.4445071e+01 </wgt>
<wgt id='1926'> +7.4524728e+01 </wgt>
<wgt id='1927'> +7.4483643e+01 </wgt>
<wgt id='1928'> +7.4425805e+01 </wgt>
<wgt id='1929'> +7.4472189e+01 </wgt>
<wgt id='1930'> +7.4466390e+01 </wgt>
<wgt id='1931'> +7.4511664e+01 </wgt>
<wgt id='1932'> +7.4481282e+01 </wgt>
<wgt id='1933'> +7.4506820e+01 </wgt>
<wgt id='1934'> +7.4457253e+01 </wgt>
<wgt id='1935'> +7.4456955e+01 </wgt>
<wgt id='1936'> +7.4503044e+01 </wgt>
<wgt id='1937'> +7.4493077e+01 </wgt>
<wgt id='1938'> +7.4443326e+01 </wgt>
<wgt id='1939'> +7.4429948e+01 </wgt>
<wgt id='1940'> +7.4464220e+01 </wgt>
<wgt id='1941'> +7.4520236e+01 </wgt>
<wgt id='1942'> +7.4413778e+01 </wgt>
<wgt id='1943'> +7.4428397e+01 </wgt>
<wgt id='1944'> +7.4426875e+01 </wgt>
<wgt id='1945'> +7.4462670e+01 </wgt>
<wgt id='1946'> +7.4431234e+01 </wgt>
<wgt id='1947'> +7.4438580e+01 </wgt>
<wgt id='1948'> +7.4463029e+01 </wgt>
<wgt id='1949'> +7.4424691e+01 </wgt>
<wgt id='1950'> +7.4474008e+01 </wgt>
<wgt id='1951'> +7.4465747e+01 </wgt>
<wgt id='1952'> +7.4473692e+01 </wgt>
<wgt id='1953'> +7.4457304e+01 </wgt>
<wgt id='1954'> +7.4464052e+01 </wgt>
<wgt id='1955'> +7.4472191e+01 </wgt>
<wgt id='1956'> +7.4464014e+01 </wgt>
<wgt id='1957'> +7.4468098e+01 </wgt>
<wgt id='1958'> +7.4465317e+01 </wgt>
<wgt id='1959'> +7.4465440e+01 </wgt>
<wgt id='1960'> +7.4466586e+01 </wgt>
<wgt id='1961'> +7.4464942e+01 </wgt>
<wgt id='1962'> +7.4468773e+01 </wgt>
</rwgt>
</event>
<event npLO=" -1 " npNLO=" 1 ">
 7      1 +1.5146096e+02 8.52791880e+01 7.54677110e-03 1.11675920e-01
       -1 -1    0    0    0  501 +0.0000000000e+00 +0.0000000000e+00 +9.0274931000e+01 9.0274931000e+01 0.0000000000e+00 0.0000e+00 9.0000e+00
        1 -1    0    0  502    0 +0.0000000000e+00 +0.0000000000e+00 -3.3839015000e+02 3.3839015000e+02 0.0000000000e+00 0.0000e+00 9.0000e+00
       23  2    1    2    0    0 +1.1818838000e+01 +8.4456231000e+01 -3.0208733000e+02 3.2774171000e+02 9.4262058000e+01 0.0000e+00 0.0000e+00
       11  1    3    3    0    0 -2.6529986000e+01 +3.3599265000e+01 -6.6672099000e+01 7.9233324000e+01 0.0000000000e+00 0.0000e+00 9.0000e+00
      -11  1    3    3    0    0 +4.7220549000e+01 +2.9050407000e+01 -1.7865223000e+02 1.8705701000e+02 0.0000000000e+00 0.0000e+00 9.0000e+00
       22  1    3    3    0    0 -8.8717245000e+00 +2.1806559000e+01 -5.6762999000e+01 6.1451376000e+01 0.0000000000e+00 0.0000e+00 9.0000e+00
       21  1    1    2  502  501 -1.1818838000e+01 -8.4456231000e+01 +5.3972103000e+01 1.0092338000e+02 0.0000000000e+00 0.0000e+00 9.0000e+00
#aMCatNLO 1  0  0  1  6 0.40473325E+01 0.00000000E+00 -9  7  0 0.00000000E+00 0.00000000E+00 0.00000000E+00 0.00000000E+00 0.00000000E+00
<rwgt>
<wgt id='1001'> +1.5146000e+02 </wgt>
<wgt id='1002'> +1.5146000e+02 </wgt>
<wgt id='1003'> +1.4467000e+02 </wgt>
<wgt id='1004'> +1.5244000e+02 </wgt>
<wgt id='1005'> +1.5493000e+02 </wgt>
<wgt id='1006'> +1.5741000e+02 </wgt>
<wgt id='1007'> +1.4274000e+02 </wgt>
<wgt id='1008'> +1.4699000e+02 </wgt>
<wgt id='1009'> +1.5768000e+02 </wgt>
<wgt id='1010'> +1.5107000e+02 </wgt>
<wgt id='1011'> +1.5260000e+02 </wgt>
<wgt id='1012'> +1.5287000e+02 </wgt>
<wgt id='1013'> +1.5066000e+02 </wgt>
<wgt id='1014'> +1.5160000e+02 </wgt>
<wgt id='1015'> +1.5698000e+02 </wgt>
<wgt id='1016'> +1.5149000e+02 </wgt>
<wgt id='1017'> +1.5062000e+02 </wgt>
<wgt id='1018'> +1.4654000e+02 </wgt>
<wgt id='1019'> +1.4559000e+02 </wgt>
<wgt id='1020'> +1.4181000e+02 </wgt>
<wgt id='1021'> +1.5203000e+02 </wgt>
<wgt id='1022'> +1.5246000e+02 </wgt>
<wgt id='1023'> +1.6072000e+02 </wgt>
<wgt id='1024'> +1.5355000e+02 </wgt>
<wgt id='1025'> +1.5485000e+02 </wgt>
<wgt id='1026'> +1.5382000e+02 </wgt>
<wgt id='1027'> +1.5156000e+02 </wgt>
<wgt id='1028'> +1.5131000e+02 </wgt>
<wgt id='1029'> +1.4726000e+02 </wgt>
<wgt id='1030'> +1.5136000e+02 </wgt>
<wgt id='1031'> +1.4975000e+02 </wgt>
<wgt id='1032'> +1.5362000e+02 </wgt>
<wgt id='1033'> +1.5373000e+02 </wgt>
<wgt id='1034'> +1.5463000e+02 </wgt>
<wgt id='1035'> +1.5422000e+02 </wgt>
<wgt id='1036'> +1.4999000e+02 </wgt>
<wgt id='1037'> +1.5561000e+02 </wgt>
<wgt id='1038'> +1.4689000e+02 </wgt>
<wgt id='1039'> +1.4944000e+02 </wgt>
<wgt id='1040'> +1.4810000e+02 </wgt>
<wgt id='1041'> +1.4634000e+02 </wgt>
<wgt id='1042'> +1.5300000e+02 </wgt>
<wgt id='1043'> +1.5635000e+02 </wgt>
<wgt id='1044'> +1.5043000e+02 </wgt>
<wgt id='1045'> +1.5285000e+02 </wgt>
<wgt id='1046'> +1.4948000e+02 </wgt>
<wgt id='1047'> +1.5409000e+02 </wgt>
<wgt id='1048'> +1.4802000e+02 </wgt>
<wgt id='1049'> +1.4766000e+02 </wgt>
<wgt id='1050'> +1.5154000e+02 </wgt>
<wgt id='1051'> +1.5169000e+02 </wgt>
<wgt id='1052'> +1.5463000e+02 </wgt>
<wgt id='1053'> +1.5524000e+02 </wgt>
<wgt id='1054'> +1.5187000e+02 </wgt>
<wgt id='1055'> +1.4962000e+02 </wgt>
<wgt id='1056'> +1.5465000e+02 </wgt>
<wgt id='1057'> +1.5390000e+02 </wgt>
<wgt id='1058'> +1.4638000e+02 </wgt>
<wgt id='1059'> +1.5072000e+02 </wgt>
<wgt id='1060'> +1.5294000e+02 </wgt>
<wgt id='1061'> +1.4862000e+02 </wgt>
<wgt id='1062'> +1.5547000e+02 </wgt>
<wgt id='1063'> +1.5180000e+02 </wgt>
<wgt id='1064'> +1.5230000e+02 </wgt>
<wgt id='1065'> +1.4942000e+02 </wgt>
<wgt id='1066'> +1.4252000e+02 </wgt>
<wgt id='1067'> +1.5495000e+02 </wgt>
<wgt id='1068'> +1.5005000e+02 </wgt>
<wgt id='1069'> +1.5759000e+02 </wgt>
<wgt id='1070'> +1.5276000e+02 </wgt>
<wgt id='1071'> +1.4985000e+02 </wgt>
<wgt id='1072'> +1.5173000e+02 </wgt>
<wgt id='1073'> +1.5109000e+02 </wgt>
<wgt id='1074'> +1.4667000e+02 </wgt>
<wgt id='1075'> +1.5132000e+02 </wgt>
<wgt id='1076'> +1.5286000e+02 </wgt>
<wgt id='1077'> +1.5145000e+02 </wgt>
<wgt id='1078'> +1.5149000e+02 </wgt>
<wgt id='1079'> +1.5265000e+02 </wgt>
<wgt id='1080'> +1.5340000e+02 </wgt>
<wgt id='1081'> +1.5281000e+02 </wgt>
<wgt id='1082'> +1.5383000e+02 </wgt>
<wgt id='1083'> +1.5401000e+02 </wgt>
<wgt id='1084'> +1.5717000e+02 </wgt>
<wgt id='1085'> +1.4677000e+02 </wgt>
<wgt id='1086'> +1.5288000e+02 </wgt>
<wgt id='1087'> +1.5189000e+02 </wgt>
<wgt id='1088'> +1.5137000e+02 </wgt>
<wgt id='1089'> +1.5462000e+02 </wgt>
<wgt id='1090'> +1.5478000e+02 </wgt>
<wgt id='1091'> +1.4951000e+02 </wgt>
<wgt id='1092'> +1.5388000e+02 </wgt>
<wgt id='1093'> +1.5495000e+02 </wgt>
<wgt id='1094'> +1.5488000e+02 </wgt>
<wgt id='1095'> +1.4919000e+02 </wgt>
<wgt id='1096'> +1.4946000e+02 </wgt>
<wgt id='1097'> +1.4069000e+02 </wgt>
<wgt id='1098'> +1.5023000e+02 </wgt>
<wgt id='1099'> +1.5057000e+02 </wgt>
<wgt id='1100'> +1.5427000e+02 </wgt>
<wgt id='1101'> +1.5398000e+02 </wgt>
<wgt id='1102'> +1.4147000e+02 </wgt>
<wgt id='1103'> +1.5037000e+02 </wgt>
<wgt id='1104'> +1.5337000e+02 </wgt>
<wgt id='1105'> +1.5146096e+02 </wgt>
<wgt id='1106'> +7.1433032e+01 </wgt>
<wgt id='1107'> +8.0235526e+01 </wgt>
<wgt id='1108'> +4.9405037e+01 </wgt>
<wgt id='1109'> +5.0159365e+01 </wgt>
<wgt id='1110'> +4.6894520e+01 </wgt>
<wgt id='1111'> +1.0187606e+02 </wgt>
<wgt id='1112'> +9.2464956e+01 </wgt>
<wgt id='1113'> +1.1349638e+02 </wgt>
<wgt id='1114'> +8.0405563e+01 </wgt>
<wgt id='1115'> +8.9289192e+01 </wgt>
<wgt id='1116'> +8.2344899e+01 </wgt>
<wgt id='1117'> +7.8334944e+01 </wgt>
<wgt id='1118'> +7.9059176e+01 </wgt>
<wgt id='1119'> +7.9635593e+01 </wgt>
<wgt id='1120'> +8.4856527e+01 </wgt>
<wgt id='1121'> +8.2878444e+01 </wgt>
<wgt id='1122'> +7.7281981e+01 </wgt>
<wgt id='1123'> +8.0089711e+01 </wgt>
<wgt id='1124'> +7.8120355e+01 </wgt>
<wgt id='1125'> +7.8241625e+01 </wgt>
<wgt id='1126'> +7.8155374e+01 </wgt>
<wgt id='1127'> +7.7849141e+01 </wgt>
<wgt id='1128'> +8.0508522e+01 </wgt>
<wgt id='1129'> +8.1268759e+01 </wgt>
<wgt id='1130'> +8.0193015e+01 </wgt>
<wgt id='1131'> +8.2573835e+01 </wgt>
<wgt id='1132'> +8.0251767e+01 </wgt>
<wgt id='1133'> +8.1968759e+01 </wgt>
<wgt id='1134'> +7.6115262e+01 </wgt>
<wgt id='1135'> +8.0968144e+01 </wgt>
<wgt id='1136'> +8.2460267e+01 </wgt>
<wgt id='1137'> +8.3963587e+01 </wgt>
<wgt id='1138'> +7.7569479e+01 </wgt>
<wgt id='1139'> +8.0867750e+01 </wgt>
<wgt id='1140'> +8.0748679e+01 </wgt>
<wgt id='1141'> +8.3727579e+01 </wgt>
<wgt id='1142'> +8.0688306e+01 </wgt>
<wgt id='1143'> +8.0062335e+01 </wgt>
<wgt id='1144'> +8.3434740e+01 </wgt>
<wgt id='1145'> +8.1921570e+01 </wgt>
<wgt id='1146'> +7.9577260e+01 </wgt>
<wgt id='1147'> +8.5700077e+01 </wgt>
<wgt id='1148'> +7.4848655e+01 </wgt>
<wgt id='1149'> +7.9875819e+01 </wgt>
<wgt id='1150'> +8.1454686e+01 </wgt>
<wgt id='1151'> +8.0235641e+01 </wgt>
<wgt id='1152'> +7.9098890e+01 </wgt>
<wgt id='1153'> +7.9501390e+01 </wgt>
<wgt id='1154'> +7.9303003e+01 </wgt>
<wgt id='1155'> +8.0594684e+01 </wgt>
<wgt id='1156'> +8.1663507e+01 </wgt>
<wgt id='1157'> +8.1944075e+01 </wgt>
<wgt id='1158'> +8.2119728e+01 </wgt>
<wgt id='1159'> +8.0634205e+01 </wgt>
<wgt id='1160'> +7.9826353e+01 </wgt>
<wgt id='1161'> +7.9921334e+01 </wgt>
<wgt id='1162'> +7.7494691e+01 </wgt>
<wgt id='1163'> +8.2754660e+01 </wgt>
<wgt id='1164'> +8.0343993e+01 </wgt>
<wgt id='1165'> +7.9704526e+01 </wgt>
<wgt id='1166'> +8.1108185e+01 </wgt>
<wgt id='1167'> +7.9424867e+01 </wgt>
<wgt id='1168'> +8.3404278e+01 </wgt>
<wgt id='1169'> +8.0433628e+01 </wgt>
<wgt id='1170'> +8.2305573e+01 </wgt>
<wgt id='1171'> +8.4552620e+01 </wgt>
<wgt id='1172'> +8.2622693e+01 </wgt>
<wgt id='1173'> +8.0665937e+01 </wgt>
<wgt id='1174'> +8.3718447e+01 </wgt>
<wgt id='1175'> +8.1077336e+01 </wgt>
<wgt id='1176'> +8.1203162e+01 </wgt>
<wgt id='1177'> +7.7479810e+01 </wgt>
<wgt id='1178'> +7.6604340e+01 </wgt>
<wgt id='1179'> +8.3239617e+01 </wgt>
<wgt id='1180'> +8.3207257e+01 </wgt>
<wgt id='1181'> +8.2438489e+01 </wgt>
<wgt id='1182'> +8.2360748e+01 </wgt>
<wgt id='1183'> +7.9615796e+01 </wgt>
<wgt id='1184'> +7.8326763e+01 </wgt>
<wgt id='1185'> +8.1195658e+01 </wgt>
<wgt id='1186'> +8.0155616e+01 </wgt>
<wgt id='1187'> +7.6861403e+01 </wgt>
<wgt id='1188'> +7.6046543e+01 </wgt>
<wgt id='1189'> +7.7683370e+01 </wgt>
<wgt id='1190'> +8.3243690e+01 </wgt>
<wgt id='1191'> +7.7961742e+01 </wgt>
<wgt id='1192'> +8.2149144e+01 </wgt>
<wgt id='1193'> +7.8551206e+01 </wgt>
<wgt id='1194'> +7.7616696e+01 </wgt>
<wgt id='1195'> +8.0432374e+01 </wgt>
<wgt id='1196'> +8.0193015e+01 </wgt>
<wgt id='1197'> +7.6036329e+01 </wgt>
<wgt id='1198'> +7.8436524e+01 </wgt>
<wgt id='1199'> +7.9842455e+01 </wgt>
<wgt id='1200'> +8.5788994e+01 </wgt>
<wgt id='1201'> +7.8853299e+01 </wgt>
<wgt id='1202'> +8.0782203e+01 </wgt>
<wgt id='1203'> +6.9194610e+01 </wgt>
<wgt id='1204'> +7.9098670e+01 </wgt>
<wgt id='1205'> +8.2597523e+01 </wgt>
<wgt id='1206'> +7.6403590e+01 </wgt>
<wgt id='1207'> +7.8496355e+01 </wgt>
<wgt id='1208'> +8.2397073e+01 </wgt>
<wgt id='1209'> +8.1811379e+01 </wgt>
<wgt id='1210'> +8.1914333e+01 </wgt>
<wgt id='1211'> +8.1290749e+01 </wgt>
<wgt id='1212'> +7.9961906e+01 </wgt>
<wgt id='1213'> +7.8793146e+01 </wgt>
<wgt id='1214'> +8.2292630e+01 </wgt>
<wgt id='1215'> +7.7028796e+01 </wgt>
<wgt id='1216'> +7.9521870e+01 </wgt>
<wgt id='1217'> +7.9447950e+01 </wgt>
<wgt id='1218'> +7.9650613e+01 </wgt>
<wgt id='1219'> +7.9535337e+01 </wgt>
<wgt id='1220'> +7.9687777e+01 </wgt>
<wgt id='1221'> +7.9697149e+01 </wgt>
<wgt id='1222'> +7.9239333e+01 </wgt>
<wgt id='1223'> +7.9810108e+01 </wgt>
<wgt id='1224'> +7.9766461e+01 </wgt>
<wgt id='1225'> +7.9843905e+01 </wgt>
<wgt id='1226'> +7.9070750e+01 </wgt>
<wgt id='1227'> +7.9307805e+01 </wgt>
<wgt id='1228'> +7.9602642e+01 </wgt>
<wgt id='1229'> +7.9834650e+01 </wgt>
<wgt id='1230'> +7.9796649e+01 </wgt>
<wgt id='1231'> +7.9043634e+01 </wgt>
<wgt id='1232'> +8.0196903e+01 </wgt>
<wgt id='1233'> +7.9228633e+01 </wgt>
<wgt id='1234'> +7.9764917e+01 </wgt>
<wgt id='1235'> +7.9286175e+01 </wgt>
<wgt id='1236'> +7.9016280e+01 </wgt>
<wgt id='1237'> +8.0191613e+01 </wgt>
<wgt id='1238'> +7.9558263e+01 </wgt>
<wgt id='1239'> +7.9419238e+01 </wgt>
<wgt id='1240'> +8.0038803e+01 </wgt>
<wgt id='1241'> +7.9090341e+01 </wgt>
<wgt id='1242'> +7.9567956e+01 </wgt>
<wgt id='1243'> +7.9275647e+01 </wgt>
<wgt id='1244'> +7.9706166e+01 </wgt>
<wgt id='1245'> +7.9967170e+01 </wgt>
<wgt id='1246'> +7.8589216e+01 </wgt>
<wgt id='1247'> +7.9349647e+01 </wgt>
<wgt id='1248'> +7.9621707e+01 </wgt>
<wgt id='1249'> +7.9824654e+01 </wgt>
<wgt id='1250'> +7.9254283e+01 </wgt>
<wgt id='1251'> +7.9682341e+01 </wgt>
<wgt id='1252'> +7.9425049e+01 </wgt>
<wgt id='1253'> +7.9256349e+01 </wgt>
<wgt id='1254'> +7.9249758e+01 </wgt>
<wgt id='1255'> +7.9683698e+01 </wgt>
<wgt id='1256'> +7.9569121e+01 </wgt>
<wgt id='1257'> +7.9490410e+01 </wgt>
<wgt id='1258'> +7.9329994e+01 </wgt>
<wgt id='1259'> +7.9686004e+01 </wgt>
<wgt id='1260'> +7.9386009e+01 </wgt>
<wgt id='1261'> +7.9420736e+01 </wgt>
<wgt id='1262'> +7.9639762e+01 </wgt>
<wgt id='1263'> +7.9775606e+01 </wgt>
<wgt id='1264'> +7.9771029e+01 </wgt>
<wgt id='1265'> +7.9363213e+01 </wgt>
<wgt id='1266'> +7.9663337e+01 </wgt>
<wgt id='1267'> +7.9653339e+01 </wgt>
<wgt id='1268'> +7.9458976e+01 </wgt>
<wgt id='1269'> +7.9445167e+01 </wgt>
<wgt id='1270'> +7.9378736e+01 </wgt>
<wgt id='1271'> +7.9552496e+01 </wgt>
<wgt id='1272'> +7.9246607e+01 </wgt>
<wgt id='1273'> +7.9545350e+01 </wgt>
<wgt id='1274'> +7.9507914e+01 </wgt>
<wgt id='1275'> +7.9632478e+01 </wgt>
<wgt id='1276'> +7.9423508e+01 </wgt>
<wgt id='1277'> +7.9644980e+01 </wgt>
<wgt id='1278'> +7.9594362e+01 </wgt>
<wgt id='1279'> +7.9766242e+01 </wgt>
<wgt id='1280'> +7.9485411e+01 </wgt>
<wgt id='1281'> +7.9536977e+01 </wgt>
<wgt id='1282'> +7.9761801e+01 </wgt>
<wgt id='1283'> +7.9311997e+01 </wgt>
<wgt id='1284'> +7.9496571e+01 </wgt>
<wgt id='1285'> +7.9524401e+01 </wgt>
<wgt id='1286'> +7.9574060e+01 </wgt>
<wgt id='1287'> +7.9593694e+01 </wgt>
<wgt id='1288'> +7.9527081e+01 </wgt>
<wgt id='1289'> +7.9429345e+01 </wgt>
<wgt id='1290'> +7.9622576e+01 </wgt>
<wgt id='1291'> +7.9739794e+01 </wgt>
<wgt id='1292'> +7.9578471e+01 </wgt>
<wgt id='1293'> +7.9534706e+01 </wgt>
<wgt id='1294'> +7.9603039e+01 </wgt>
<wgt id='1295'> +7.9638650e+01 </wgt>
<wgt id='1296'> +7.9488932e+01 </wgt>
<wgt id='1297'> +7.9537042e+01 </wgt>
<wgt id='1298'> +7.9422990e+01 </wgt>
<wgt id='1299'> +7.9403525e+01 </wgt>
<wgt id='1300'> +7.9566323e+01 </wgt>
<wgt id='1301'> +7.9453813e+01 </wgt>
<wgt id='1302'> +7.9552461e+01 </wgt>
<wgt id='1303'> +7.9396941e+01 </wgt>
<wgt id='1304'> +7.9542004e+01 </wgt>
<wgt id='1305'> +7.9560003e+01 </wgt>
<wgt id='1306'> +7.9547847e+01 </wgt>
<wgt id='1307'> +7.9604928e+01 </wgt>
<wgt id='1308'> +7.9506930e+01 </wgt>
<wgt id='1309'> +7.9611702e+01 </wgt>
<wgt id='1310'> +7.9505581e+01 </wgt>
<wgt id='1311'> +7.9454273e+01 </wgt>
<wgt id='1312'> +7.9462830e+01 </wgt>
<wgt id='1313'> +7.9485552e+01 </wgt>
<wgt id='1314'> +7.9561120e+01 </wgt>
<wgt id='1315'> +7.9508556e+01 </wgt>
<wgt id='1316'> +7.9561274e+01 </wgt>
<wgt id='1317'> +7.7854650e+01 </wgt>
<wgt id='1318'> +8.1182339e+01 </wgt>
<wgt id='1319'> +8.4580215e+01 </wgt>
<wgt id='1320'> +7.6657696e+01 </wgt>
<wgt id='1321'> +7.8682749e+01 </wgt>
<wgt id='1322'> +7.6524547e+01 </wgt>
<wgt id='1323'> +7.6507379e+01 </wgt>
<wgt id='1324'> +7.6303465e+01 </wgt>
<wgt id='1325'> +7.7367958e+01 </wgt>
<wgt id='1326'> +7.6546191e+01 </wgt>
<wgt id='1327'> +7.6998799e+01 </wgt>
<wgt id='1328'> +7.6885828e+01 </wgt>
<wgt id='1329'> +7.6381439e+01 </wgt>
<wgt id='1330'> +7.6242741e+01 </wgt>
<wgt id='1331'> +7.5556107e+01 </wgt>
<wgt id='1332'> +7.7808157e+01 </wgt>
<wgt id='1333'> +7.5545923e+01 </wgt>
<wgt id='1334'> +7.6666898e+01 </wgt>
<wgt id='1335'> +7.8143805e+01 </wgt>
<wgt id='1336'> +7.4208659e+01 </wgt>
<wgt id='1337'> +7.9414971e+01 </wgt>
<wgt id='1338'> +7.3583199e+01 </wgt>
<wgt id='1339'> +7.7213521e+01 </wgt>
<wgt id='1340'> +7.6049200e+01 </wgt>
<wgt id='1341'> +7.6928670e+01 </wgt>
<wgt id='1342'> +7.6039523e+01 </wgt>
<wgt id='1343'> +7.7532502e+01 </wgt>
<wgt id='1344'> +7.5941506e+01 </wgt>
<wgt id='1345'> +7.6119881e+01 </wgt>
<wgt id='1346'> +7.7068386e+01 </wgt>
<wgt id='1347'> +7.6333628e+01 </wgt>
<wgt id='1348'> +7.7125525e+01 </wgt>
<wgt id='1349'> +7.7142580e+01 </wgt>
<wgt id='1350'> +7.6494915e+01 </wgt>
<wgt id='1351'> +7.7620524e+01 </wgt>
<wgt id='1352'> +7.5427748e+01 </wgt>
<wgt id='1353'> +7.6473564e+01 </wgt>
<wgt id='1354'> +7.7082836e+01 </wgt>
<wgt id='1355'> +7.7461726e+01 </wgt>
<wgt id='1356'> +7.6064370e+01 </wgt>
<wgt id='1357'> +7.6979499e+01 </wgt>
<wgt id='1358'> +7.5728838e+01 </wgt>
<wgt id='1359'> +7.5277396e+01 </wgt>
<wgt id='1360'> +7.7101094e+01 </wgt>
<wgt id='1361'> +7.7056788e+01 </wgt>
<wgt id='1362'> +7.7083062e+01 </wgt>
<wgt id='1363'> +7.6418860e+01 </wgt>
<wgt id='1364'> +7.6393786e+01 </wgt>
<wgt id='1365'> +7.6498368e+01 </wgt>
<wgt id='1366'> +7.5234591e+01 </wgt>
<wgt id='1367'> +7.5443811e+01 </wgt>
<wgt id='1368'> +7.6432611e+01 </wgt>
<wgt id='1369'> +7.5307446e+01 </wgt>
<wgt id='1370'> +7.6666918e+01 </wgt>
<wgt id='1371'> +7.5602389e+01 </wgt>
<wgt id='1372'> +7.5399513e+01 </wgt>
<wgt id='1373'> +7.5971724e+01 </wgt>
<wgt id='1374'> +7.6305561e+01 </wgt>
<wgt id='1375'> +7.6408633e+01 </wgt>
<wgt id='1376'> +7.8349665e+01 </wgt>
<wgt id='1377'> +7.4710777e+01 </wgt>
<wgt id='1378'> +7.8490711e+01 </wgt>
<wgt id='1379'> +7.6734987e+01 </wgt>
<wgt id='1380'> +7.4787555e+01 </wgt>
<wgt id='1381'> +7.8701202e+01 </wgt>
<wgt id='1382'> +6.8226844e+01 </wgt>
<wgt id='1383'> +7.3309776e+01 </wgt>
<wgt id='1384'> +7.6744577e+01 </wgt>
<wgt id='1385'> +7.6559814e+01 </wgt>
<wgt id='1386'> +7.6987316e+01 </wgt>
<wgt id='1387'> +7.6086112e+01 </wgt>
<wgt id='1388'> +7.6741583e+01 </wgt>
<wgt id='1389'> +7.6236299e+01 </wgt>
<wgt id='1390'> +7.6875626e+01 </wgt>
<wgt id='1391'> +7.6186556e+01 </wgt>
<wgt id='1392'> +7.6215305e+01 </wgt>
<wgt id='1393'> +7.6799452e+01 </wgt>
<wgt id='1394'> +7.6466527e+01 </wgt>
<wgt id='1395'> +7.6674103e+01 </wgt>
<wgt id='1396'> +7.7107937e+01 </wgt>
<wgt id='1397'> +7.6271582e+01 </wgt>
<wgt id='1398'> +7.5458040e+01 </wgt>
<wgt id='1399'> +7.7384965e+01 </wgt>
<wgt id='1400'> +7.6340178e+01 </wgt>
<wgt id='1401'> +7.6728924e+01 </wgt>
<wgt id='1402'> +7.6267288e+01 </wgt>
<wgt id='1403'> +7.6692711e+01 </wgt>
<wgt id='1404'> +7.4604301e+01 </wgt>
<wgt id='1405'> +7.7567087e+01 </wgt>
<wgt id='1406'> +7.6418684e+01 </wgt>
<wgt id='1407'> +7.6816752e+01 </wgt>
<wgt id='1408'> +7.5972130e+01 </wgt>
<wgt id='1409'> +7.7749555e+01 </wgt>
<wgt id='1410'> +7.6623986e+01 </wgt>
<wgt id='1411'> +7.6440960e+01 </wgt>
<wgt id='1412'> +7.7024565e+01 </wgt>
<wgt id='1413'> +7.6003186e+01 </wgt>
<wgt id='1414'> +7.6056297e+01 </wgt>
<wgt id='1415'> +7.6962132e+01 </wgt>
<wgt id='1416'> +7.5518262e+01 </wgt>
<wgt id='1417'> +7.7046178e+01 </wgt>
<wgt id='1418'> +7.6347969e+01 </wgt>
<wgt id='1419'> +7.6970817e+01 </wgt>
<wgt id='1420'> +7.7035370e+01 </wgt>
<wgt id='1421'> +7.6717649e+01 </wgt>
<wgt id='1422'> +7.7125910e+01 </wgt>
<wgt id='1423'> +7.5886824e+01 </wgt>
<wgt id='1424'> +7.6805609e+01 </wgt>
<wgt id='1425'> +7.6245499e+01 </wgt>
<wgt id='1426'> +7.7463895e+01 </wgt>
<wgt id='1427'> +7.6371221e+01 </wgt>
<wgt id='1428'> +7.6757777e+01 </wgt>
<wgt id='1429'> +7.5728161e+01 </wgt>
<wgt id='1430'> +7.7020606e+01 </wgt>
<wgt id='1431'> +7.7004193e+01 </wgt>
<wgt id='1432'> +7.6912844e+01 </wgt>
<wgt id='1433'> +7.7249954e+01 </wgt>
<wgt id='1434'> +7.6794525e+01 </wgt>
<wgt id='1435'> +7.5716749e+01 </wgt>
<wgt id='1436'> +6.5722443e+01 </wgt>
<wgt id='1437'> +6.5713903e+01 </wgt>
<wgt id='1438'> +6.5826770e+01 </wgt>
<wgt id='1439'> +6.5729536e+01 </wgt>
<wgt id='1440'> +6.5402269e+01 </wgt>
<wgt id='1441'> +6.6178066e+01 </wgt>
<wgt id='1442'> +6.5586412e+01 </wgt>
<wgt id='1443'> +6.5558045e+01 </wgt>
<wgt id='1444'> +6.5786791e+01 </wgt>
<wgt id='1445'> +6.4992562e+01 </wgt>
<wgt id='1446'> +6.6024658e+01 </wgt>
<wgt id='1447'> +6.5596809e+01 </wgt>
<wgt id='1448'> +6.5689598e+01 </wgt>
<wgt id='1449'> +6.5831426e+01 </wgt>
<wgt id='1450'> +6.5736494e+01 </wgt>
<wgt id='1451'> +6.6038231e+01 </wgt>
<wgt id='1452'> +6.5666122e+01 </wgt>
<wgt id='1453'> +6.5809819e+01 </wgt>
<wgt id='1454'> +6.5813960e+01 </wgt>
<wgt id='1455'> +6.5877237e+01 </wgt>
<wgt id='1456'> +6.5877611e+01 </wgt>
<wgt id='1457'> +6.6190395e+01 </wgt>
<wgt id='1458'> +6.6098866e+01 </wgt>
<wgt id='1459'> +6.5230262e+01 </wgt>
<wgt id='1460'> +6.5533124e+01 </wgt>
<wgt id='1461'> +6.5631171e+01 </wgt>
<wgt id='1462'> +6.5114812e+01 </wgt>
<wgt id='1463'> +6.6469528e+01 </wgt>
<wgt id='1464'> +6.5709113e+01 </wgt>
<wgt id='1465'> +7.3465877e+01 </wgt>
<wgt id='1466'> +7.5320826e+01 </wgt>
<wgt id='1467'> +7.4957697e+01 </wgt>
<wgt id='1468'> +7.4769562e+01 </wgt>
<wgt id='1469'> +7.5918338e+01 </wgt>
<wgt id='1470'> +7.5133122e+01 </wgt>
<wgt id='1471'> +7.5577335e+01 </wgt>
<wgt id='1472'> +7.4575841e+01 </wgt>
<wgt id='1473'> +7.5708396e+01 </wgt>
<wgt id='1474'> +7.5477987e+01 </wgt>
<wgt id='1475'> +7.5443364e+01 </wgt>
<wgt id='1476'> +7.5194461e+01 </wgt>
<wgt id='1477'> +7.4406211e+01 </wgt>
<wgt id='1478'> +7.5043333e+01 </wgt>
<wgt id='1479'> +7.5527384e+01 </wgt>
<wgt id='1480'> +7.4855721e+01 </wgt>
<wgt id='1481'> +7.5290823e+01 </wgt>
<wgt id='1482'> +7.4425329e+01 </wgt>
<wgt id='1483'> +7.5500524e+01 </wgt>
<wgt id='1484'> +7.6778790e+01 </wgt>
<wgt id='1485'> +7.4753809e+01 </wgt>
<wgt id='1486'> +7.5229906e+01 </wgt>
<wgt id='1487'> +7.5712436e+01 </wgt>
<wgt id='1488'> +7.5317851e+01 </wgt>
<wgt id='1489'> +7.6277940e+01 </wgt>
<wgt id='1490'> +7.5124411e+01 </wgt>
<wgt id='1491'> +7.5552759e+01 </wgt>
<wgt id='1492'> +7.5220028e+01 </wgt>
<wgt id='1493'> +7.5418359e+01 </wgt>
<wgt id='1494'> +7.5183461e+01 </wgt>
<wgt id='1495'> +7.5184028e+01 </wgt>
<wgt id='1496'> +7.5331042e+01 </wgt>
<wgt id='1497'> +7.5173679e+01 </wgt>
<wgt id='1498'> +7.5781616e+01 </wgt>
<wgt id='1499'> +7.5335715e+01 </wgt>
<wgt id='1500'> +7.5512237e+01 </wgt>
<wgt id='1501'> +7.5385978e+01 </wgt>
<wgt id='1502'> +7.5189559e+01 </wgt>
<wgt id='1503'> +7.5618512e+01 </wgt>
<wgt id='1504'> +7.4761180e+01 </wgt>
<wgt id='1505'> +7.5204204e+01 </wgt>
<wgt id='1506'> +7.5628068e+01 </wgt>
<wgt id='1507'> +7.5122851e+01 </wgt>
<wgt id='1508'> +7.5495052e+01 </wgt>
<wgt id='1509'> +7.5207730e+01 </wgt>
<wgt id='1510'> +7.5632964e+01 </wgt>
<wgt id='1511'> +7.5342261e+01 </wgt>
<wgt id='1512'> +7.5280993e+01 </wgt>
<wgt id='1513'> +7.5474510e+01 </wgt>
<wgt id='1514'> +7.5226025e+01 </wgt>
<wgt id='1515'> +7.5401969e+01 </wgt>
<wgt id='1516'> +7.5439404e+01 </wgt>
<wgt id='1517'> +7.5169475e+01 </wgt>
<wgt id='1518'> +7.5249410e+01 </wgt>
<wgt id='1519'> +7.5327063e+01 </wgt>
<wgt id='1520'> +7.5064547e+01 </wgt>
<wgt id='1521'> +7.5284317e+01 </wgt>
<wgt id='1522'> +7.5276828e+01 </wgt>
<wgt id='1523'> +7.5281729e+01 </wgt>
<wgt id='1524'> +7.5463346e+01 </wgt>
<wgt id='1525'> +7.5420434e+01 </wgt>
<wgt id='1526'> +7.5204164e+01 </wgt>
<wgt id='1527'> +7.5283321e+01 </wgt>
<wgt id='1528'> +7.5308928e+01 </wgt>
<wgt id='1529'> +7.5421417e+01 </wgt>
<wgt id='1530'> +7.5330303e+01 </wgt>
<wgt id='1531'> +7.5375319e+01 </wgt>
<wgt id='1532'> +7.5334838e+01 </wgt>
<wgt id='1533'> +7.5383027e+01 </wgt>
<wgt id='1534'> +7.5304093e+01 </wgt>
<wgt id='1535'> +7.5337542e+01 </wgt>
<wgt id='1536'> +7.5261416e+01 </wgt>
<wgt id='1537'> +7.5303833e+01 </wgt>
<wgt id='1538'> +7.5331707e+01 </wgt>
<wgt id='1539'> +7.5241097e+01 </wgt>
<wgt id='1540'> +7.5217646e+01 </wgt>
<wgt id='1541'> +7.5344993e+01 </wgt>
<wgt id='1542'> +7.5371778e+01 </wgt>
<wgt id='1543'> +7.5322158e+01 </wgt>
<wgt id='1544'> +7.5339499e+01 </wgt>
<wgt id='1545'> +7.5361993e+01 </wgt>
<wgt id='1546'> +7.5307057e+01 </wgt>
<wgt id='1547'> +7.5355527e+01 </wgt>
<wgt id='1548'> +7.5298107e+01 </wgt>
<wgt id='1549'> +7.5378872e+01 </wgt>
<wgt id='1550'> +7.5344222e+01 </wgt>
<wgt id='1551'> +7.5246699e+01 </wgt>
<wgt id='1552'> +7.5348583e+01 </wgt>
<wgt id='1553'> +7.5273175e+01 </wgt>
<wgt id='1554'> +7.5315215e+01 </wgt>
<wgt id='1555'> +7.5352194e+01 </wgt>
<wgt id='1556'> +7.5353455e+01 </wgt>
<wgt id='1557'> +7.5317077e+01 </wgt>
<wgt id='1558'> +7.5316052e+01 </wgt>
<wgt id='1559'> +7.5299520e+01 </wgt>
<wgt id='1560'> +7.5329769e+01 </wgt>
<wgt id='1561'> +7.5336054e+01 </wgt>
<wgt id='1562'> +7.5317616e+01 </wgt>
<wgt id='1563'> +7.5332476e+01 </wgt>
<wgt id='1564'> +7.5332258e+01 </wgt>
<wgt id='1565'> +7.5341948e+01 </wgt>
<wgt id='1566'> +7.5304415e+01 </wgt>
<wgt id='1567'> +7.3885249e+01 </wgt>
<wgt id='1568'> +7.6531088e+01 </wgt>
<wgt id='1569'> +7.6948162e+01 </wgt>
<wgt id='1570'> +7.6920550e+01 </wgt>
<wgt id='1571'> +7.6795191e+01 </wgt>
<wgt id='1572'> +7.6998036e+01 </wgt>
<wgt id='1573'> +7.7293071e+01 </wgt>
<wgt id='1574'> +7.7511417e+01 </wgt>
<wgt id='1575'> +7.7252790e+01 </wgt>
<wgt id='1576'> +7.7126120e+01 </wgt>
<wgt id='1577'> +7.6874680e+01 </wgt>
<wgt id='1578'> +7.6803241e+01 </wgt>
<wgt id='1579'> +7.6756988e+01 </wgt>
<wgt id='1580'> +7.7756741e+01 </wgt>
<wgt id='1581'> +7.7113361e+01 </wgt>
<wgt id='1582'> +7.7143597e+01 </wgt>
<wgt id='1583'> +7.6656490e+01 </wgt>
<wgt id='1584'> +7.7675095e+01 </wgt>
<wgt id='1585'> +7.6867867e+01 </wgt>
<wgt id='1586'> +7.6773043e+01 </wgt>
<wgt id='1587'> +7.7543073e+01 </wgt>
<wgt id='1588'> +7.5989786e+01 </wgt>
<wgt id='1589'> +7.6986515e+01 </wgt>
<wgt id='1590'> +7.7109953e+01 </wgt>
<wgt id='1591'> +7.5678232e+01 </wgt>
<wgt id='1592'> +7.7202124e+01 </wgt>
<wgt id='1593'> +7.7367139e+01 </wgt>
<wgt id='1594'> +7.6585272e+01 </wgt>
<wgt id='1595'> +7.6419880e+01 </wgt>
<wgt id='1596'> +7.7267318e+01 </wgt>
<wgt id='1597'> +7.6911835e+01 </wgt>
<wgt id='1598'> +7.6302822e+01 </wgt>
<wgt id='1599'> +7.6739435e+01 </wgt>
<wgt id='1600'> +7.7060276e+01 </wgt>
<wgt id='1601'> +7.6984587e+01 </wgt>
<wgt id='1602'> +7.6819945e+01 </wgt>
<wgt id='1603'> +7.6577879e+01 </wgt>
<wgt id='1604'> +7.7450266e+01 </wgt>
<wgt id='1605'> +7.6490057e+01 </wgt>
<wgt id='1606'> +7.7324999e+01 </wgt>
<wgt id='1607'> +7.6924824e+01 </wgt>
<wgt id='1608'> +7.6523140e+01 </wgt>
<wgt id='1609'> +7.6621552e+01 </wgt>
<wgt id='1610'> +7.6634057e+01 </wgt>
<wgt id='1611'> +7.6986125e+01 </wgt>
<wgt id='1612'> +7.7005948e+01 </wgt>
<wgt id='1613'> +7.7202827e+01 </wgt>
<wgt id='1614'> +7.6694262e+01 </wgt>
<wgt id='1615'> +7.6892231e+01 </wgt>
<wgt id='1616'> +7.6917878e+01 </wgt>
<wgt id='1617'> +7.6932995e+01 </wgt>
<wgt id='1618'> +7.6886238e+01 </wgt>
<wgt id='1619'> +7.7021592e+01 </wgt>
<wgt id='1620'> +7.6978613e+01 </wgt>
<wgt id='1621'> +7.6943966e+01 </wgt>
<wgt id='1622'> +7.6901568e+01 </wgt>
<wgt id='1623'> +7.6909191e+01 </wgt>
<wgt id='1624'> +7.6860365e+01 </wgt>
<wgt id='1625'> +7.7121664e+01 </wgt>
<wgt id='1626'> +7.6947420e+01 </wgt>
<wgt id='1627'> +7.6939920e+01 </wgt>
<wgt id='1628'> +7.6997115e+01 </wgt>
<wgt id='1629'> +7.6897002e+01 </wgt>
<wgt id='1630'> +7.7053712e+01 </wgt>
<wgt id='1631'> +7.6939480e+01 </wgt>
<wgt id='1632'> +7.6963858e+01 </wgt>
<wgt id='1633'> +7.6962644e+01 </wgt>
<wgt id='1634'> +7.6809359e+01 </wgt>
<wgt id='1635'> +7.6927078e+01 </wgt>
<wgt id='1636'> +7.6952451e+01 </wgt>
<wgt id='1637'> +7.7020691e+01 </wgt>
<wgt id='1638'> +7.6933235e+01 </wgt>
<wgt id='1639'> +7.6901439e+01 </wgt>
<wgt id='1640'> +7.7077085e+01 </wgt>
<wgt id='1641'> +7.6881499e+01 </wgt>
<wgt id='1642'> +7.6919441e+01 </wgt>
<wgt id='1643'> +7.6928227e+01 </wgt>
<wgt id='1644'> +7.7005257e+01 </wgt>
<wgt id='1645'> +7.6960799e+01 </wgt>
<wgt id='1646'> +7.6923690e+01 </wgt>
<wgt id='1647'> +7.6969235e+01 </wgt>
<wgt id='1648'> +7.6949240e+01 </wgt>
<wgt id='1649'> +7.7011130e+01 </wgt>
<wgt id='1650'> +7.6886766e+01 </wgt>
<wgt id='1651'> +7.6949694e+01 </wgt>
<wgt id='1652'> +7.6881812e+01 </wgt>
<wgt id='1653'> +7.6937901e+01 </wgt>
<wgt id='1654'> +7.6931088e+01 </wgt>
<wgt id='1655'> +7.6957620e+01 </wgt>
<wgt id='1656'> +7.6890194e+01 </wgt>
<wgt id='1657'> +7.6932649e+01 </wgt>
<wgt id='1658'> +7.6921164e+01 </wgt>
<wgt id='1659'> +7.6982687e+01 </wgt>
<wgt id='1660'> +7.6919112e+01 </wgt>
<wgt id='1661'> +7.6921905e+01 </wgt>
<wgt id='1662'> +7.6951496e+01 </wgt>
<wgt id='1663'> +7.6947157e+01 </wgt>
<wgt id='1664'> +7.6985044e+01 </wgt>
<wgt id='1665'> +7.6961903e+01 </wgt>
<wgt id='1666'> +7.6953526e+01 </wgt>
<wgt id='1667'> +7.6914824e+01 </wgt>
<wgt id='1668'> +7.6947533e+01 </wgt>
<wgt id='1669'> +7.6966939e+01 </wgt>
<wgt id='1670'> +7.5478448e+01 </wgt>
<wgt id='1671'> +7.8270846e+01 </wgt>
<wgt id='1672'> +7.5316229e+01 </wgt>
<wgt id='1673'> +7.5079863e+01 </wgt>
<wgt id='1674'> +7.3350670e+01 </wgt>
<wgt id='1675'> +7.5241452e+01 </wgt>
<wgt id='1676'> +7.6045232e+01 </wgt>
<wgt id='1677'> +7.5214788e+01 </wgt>
<wgt id='1678'> +7.5900451e+01 </wgt>
<wgt id='1679'> +7.5395566e+01 </wgt>
<wgt id='1680'> +7.5432436e+01 </wgt>
<wgt id='1681'> +7.5569553e+01 </wgt>
<wgt id='1682'> +7.5449284e+01 </wgt>
<wgt id='1683'> +7.5045094e+01 </wgt>
<wgt id='1684'> +7.5534213e+01 </wgt>
<wgt id='1685'> +7.5282759e+01 </wgt>
<wgt id='1686'> +7.4529174e+01 </wgt>
<wgt id='1687'> +7.5493964e+01 </wgt>
<wgt id='1688'> +7.5552953e+01 </wgt>
<wgt id='1689'> +7.4872847e+01 </wgt>
<wgt id='1690'> +7.5208482e+01 </wgt>
<wgt id='1691'> +7.5608114e+01 </wgt>
<wgt id='1692'> +7.6483336e+01 </wgt>
<wgt id='1693'> +7.5318393e+01 </wgt>
<wgt id='1694'> +7.5160099e+01 </wgt>
<wgt id='1695'> +7.5453947e+01 </wgt>
<wgt id='1696'> +7.5232509e+01 </wgt>
<wgt id='1697'> +7.5420491e+01 </wgt>
<wgt id='1698'> +7.4519101e+01 </wgt>
<wgt id='1699'> +7.5500006e+01 </wgt>
<wgt id='1700'> +7.5322984e+01 </wgt>
<wgt id='1701'> +7.5320692e+01 </wgt>
<wgt id='1702'> +7.5317497e+01 </wgt>
<wgt id='1703'> +7.3885249e+01 </wgt>
<wgt id='1704'> +7.6531088e+01 </wgt>
<wgt id='1705'> +7.6942807e+01 </wgt>
<wgt id='1706'> +7.7037374e+01 </wgt>
<wgt id='1707'> +7.8153647e+01 </wgt>
<wgt id='1708'> +7.6809290e+01 </wgt>
<wgt id='1709'> +7.6265633e+01 </wgt>
<wgt id='1710'> +7.6327187e+01 </wgt>
<wgt id='1711'> +7.6928946e+01 </wgt>
<wgt id='1712'> +7.6921147e+01 </wgt>
<wgt id='1713'> +7.6925244e+01 </wgt>
<wgt id='1714'> +7.6203415e+01 </wgt>
<wgt id='1715'> +7.6809462e+01 </wgt>
<wgt id='1716'> +7.8609923e+01 </wgt>
<wgt id='1717'> +7.6956164e+01 </wgt>
<wgt id='1718'> +7.6813755e+01 </wgt>
<wgt id='1719'> +7.6861517e+01 </wgt>
<wgt id='1720'> +7.6579218e+01 </wgt>
<wgt id='1721'> +7.6888646e+01 </wgt>
<wgt id='1722'> +7.6794177e+01 </wgt>
<wgt id='1723'> +7.7023143e+01 </wgt>
<wgt id='1724'> +7.7232752e+01 </wgt>
<wgt id='1725'> +7.6651351e+01 </wgt>
<wgt id='1726'> +7.6035073e+01 </wgt>
<wgt id='1727'> +7.7198493e+01 </wgt>
<wgt id='1728'> +7.6959077e+01 </wgt>
<wgt id='1729'> +7.6852036e+01 </wgt>
<wgt id='1730'> +7.6946250e+01 </wgt>
<wgt id='1731'> +7.7042385e+01 </wgt>
<wgt id='1732'> +7.6975888e+01 </wgt>
<wgt id='1733'> +7.6805031e+01 </wgt>
<wgt id='1734'> +7.6865731e+01 </wgt>
<wgt id='1735'> +7.7040661e+01 </wgt>
<wgt id='1736'> +7.5478448e+01 </wgt>
<wgt id='1737'> +7.8270846e+01 </wgt>
<wgt id='1738'> +6.9716274e+01 </wgt>
<wgt id='1739'> +6.9836045e+01 </wgt>
<wgt id='1740'> +6.9597130e+01 </wgt>
<wgt id='1741'> +6.9582074e+01 </wgt>
<wgt id='1742'> +6.9850396e+01 </wgt>
<wgt id='1743'> +6.9831253e+01 </wgt>
<wgt id='1744'> +6.9601487e+01 </wgt>
<wgt id='1745'> +6.9513354e+01 </wgt>
<wgt id='1746'> +6.9913269e+01 </wgt>
<wgt id='1747'> +6.9724700e+01 </wgt>
<wgt id='1748'> +6.9678696e+01 </wgt>
<wgt id='1749'> +6.9922402e+01 </wgt>
<wgt id='1750'> +6.9523806e+01 </wgt>
<wgt id='1751'> +6.9756783e+01 </wgt>
<wgt id='1752'> +6.9675339e+01 </wgt>
<wgt id='1753'> +6.9929865e+01 </wgt>
<wgt id='1754'> +6.9421354e+01 </wgt>
<wgt id='1755'> +6.9902847e+01 </wgt>
<wgt id='1756'> +6.9554573e+01 </wgt>
<wgt id='1757'> +6.8716876e+01 </wgt>
<wgt id='1758'> +7.0632289e+01 </wgt>
<wgt id='1759'> +6.8474729e+01 </wgt>
<wgt id='1760'> +7.0918596e+01 </wgt>
<wgt id='1761'> +6.9596133e+01 </wgt>
<wgt id='1762'> +6.9620234e+01 </wgt>
<wgt id='1763'> +7.0244443e+01 </wgt>
<wgt id='1764'> +6.9207842e+01 </wgt>
<wgt id='1765'> +7.0088676e+01 </wgt>
<wgt id='1766'> +6.9368210e+01 </wgt>
<wgt id='1767'> +6.9716274e+01 </wgt>
<wgt id='1768'> +7.3183315e+01 </wgt>
<wgt id='1769'> +6.5971534e+01 </wgt>
<wgt id='1770'> +7.8806838e+01 </wgt>
<wgt id='1771'> +7.5647572e+01 </wgt>
<wgt id='1772'> +7.0179783e+01 </wgt>
<wgt id='1773'> +6.9860657e+01 </wgt>
<wgt id='1774'> +6.9757090e+01 </wgt>
<wgt id='1775'> +6.9655496e+01 </wgt>
<wgt id='1776'> +6.9359241e+01 </wgt>
<wgt id='1777'> +7.0007058e+01 </wgt>
<wgt id='1778'> +6.9078971e+01 </wgt>
<wgt id='1779'> +7.0475508e+01 </wgt>
<wgt id='1780'> +6.8149725e+01 </wgt>
<wgt id='1781'> +7.2642894e+01 </wgt>
<wgt id='1782'> +7.2740185e+01 </wgt>
<wgt id='1783'> +7.2519154e+01 </wgt>
<wgt id='1784'> +7.2460723e+01 </wgt>
<wgt id='1785'> +7.2798494e+01 </wgt>
<wgt id='1786'> +7.2672615e+01 </wgt>
<wgt id='1787'> +7.2586277e+01 </wgt>
<wgt id='1788'> +7.2318188e+01 </wgt>
<wgt id='1789'> +7.2933105e+01 </wgt>
<wgt id='1790'> +7.2797305e+01 </wgt>
<wgt id='1791'> +7.2460951e+01 </wgt>
<wgt id='1792'> +7.2625961e+01 </wgt>
<wgt id='1793'> +7.2608105e+01 </wgt>
<wgt id='1794'> +7.2564217e+01 </wgt>
<wgt id='1795'> +7.2690132e+01 </wgt>
<wgt id='1796'> +7.2540532e+01 </wgt>
<wgt id='1797'> +7.2630523e+01 </wgt>
<wgt id='1798'> +7.2415217e+01 </wgt>
<wgt id='1799'> +7.2832201e+01 </wgt>
<wgt id='1800'> +7.1667521e+01 </wgt>
<wgt id='1801'> +7.3535511e+01 </wgt>
<wgt id='1802'> +7.3042514e+01 </wgt>
<wgt id='1803'> +7.2179507e+01 </wgt>
<wgt id='1804'> +7.3702168e+01 </wgt>
<wgt id='1805'> +7.1612960e+01 </wgt>
<wgt id='1806'> +7.3889108e+01 </wgt>
<wgt id='1807'> +7.1465240e+01 </wgt>
<wgt id='1808'> +7.3593726e+01 </wgt>
<wgt id='1809'> +7.1766561e+01 </wgt>
<wgt id='1810'> +7.2640871e+01 </wgt>
<wgt id='1811'> +7.6494410e+01 </wgt>
<wgt id='1812'> +6.8029137e+01 </wgt>
<wgt id='1813'> +8.1720414e+01 </wgt>
<wgt id='1814'> +7.7252144e+01 </wgt>
<wgt id='1815'> +7.6065918e+01 </wgt>
<wgt id='1816'> +7.1316079e+01 </wgt>
<wgt id='1817'> +7.2609430e+01 </wgt>
<wgt id='1818'> +7.2295813e+01 </wgt>
<wgt id='1819'> +7.2110456e+01 </wgt>
<wgt id='1820'> +7.5823875e+01 </wgt>
<wgt id='1821'> +7.2497299e+01 </wgt>
<wgt id='1822'> +7.1984876e+01 </wgt>
<wgt id='1823'> +7.0638471e+01 </wgt>
<wgt id='1824'> +7.5992299e+01 </wgt>
<wgt id='1825'> +7.5958469e+01 </wgt>
<wgt id='1826'> +7.5924565e+01 </wgt>
<wgt id='1827'> +7.5890703e+01 </wgt>
<wgt id='1828'> +7.5856845e+01 </wgt>
<wgt id='1829'> +7.5822904e+01 </wgt>
<wgt id='1830'> +7.5789118e+01 </wgt>
<wgt id='1831'> +7.5755284e+01 </wgt>
<wgt id='1832'> +7.5721455e+01 </wgt>
<wgt id='1833'> +7.5687610e+01 </wgt>
<wgt id='1834'> +7.5653839e+01 </wgt>
<wgt id='1835'> +7.5619982e+01 </wgt>
<wgt id='1836'> +7.5586130e+01 </wgt>
<wgt id='1837'> +7.5552414e+01 </wgt>
<wgt id='1838'> +7.5518544e+01 </wgt>
<wgt id='1839'> +7.5484812e+01 </wgt>
<wgt id='1840'> +7.5450984e+01 </wgt>
<wgt id='1841'> +7.5417142e+01 </wgt>
<wgt id='1842'> +7.5383349e+01 </wgt>
<wgt id='1843'> +7.5349549e+01 </wgt>
<wgt id='1844'> +7.5315848e+01 </wgt>
<wgt id='1845'> +7.5282096e+01 </wgt>
<wgt id='1846'> +7.5248383e+01 </wgt>
<wgt id='1847'> +7.5214626e+01 </wgt>
<wgt id='1848'> +7.5180950e+01 </wgt>
<wgt id='1849'> +7.5147208e+01 </wgt>
<wgt id='1850'> +7.5113496e+01 </wgt>
<wgt id='1851'> +7.5079807e+01 </wgt>
<wgt id='1852'> +7.5046095e+01 </wgt>
<wgt id='1853'> +7.5012481e+01 </wgt>
<wgt id='1854'> +7.4978736e+01 </wgt>
<wgt id='1855'> +7.6642251e+01 </wgt>
<wgt id='1856'> +7.6602504e+01 </wgt>
<wgt id='1857'> +7.6484872e+01 </wgt>
<wgt id='1858'> +7.6694526e+01 </wgt>
<wgt id='1859'> +7.6984087e+01 </wgt>
<wgt id='1860'> +7.7203024e+01 </wgt>
<wgt id='1861'> +7.6957057e+01 </wgt>
<wgt id='1862'> +7.6830859e+01 </wgt>
<wgt id='1863'> +7.6570263e+01 </wgt>
<wgt id='1864'> +7.6498513e+01 </wgt>
<wgt id='1865'> +7.6450377e+01 </wgt>
<wgt id='1866'> +7.7460537e+01 </wgt>
<wgt id='1867'> +7.6812461e+01 </wgt>
<wgt id='1868'> +7.6843946e+01 </wgt>
<wgt id='1869'> +7.6349452e+01 </wgt>
<wgt id='1870'> +7.7348081e+01 </wgt>
<wgt id='1871'> +7.6574002e+01 </wgt>
<wgt id='1872'> +7.6462730e+01 </wgt>
<wgt id='1873'> +7.7232711e+01 </wgt>
<wgt id='1874'> +7.5694457e+01 </wgt>
<wgt id='1875'> +7.6690778e+01 </wgt>
<wgt id='1876'> +7.6798077e+01 </wgt>
<wgt id='1877'> +7.5373044e+01 </wgt>
<wgt id='1878'> +7.6899640e+01 </wgt>
<wgt id='1879'> +7.7055723e+01 </wgt>
<wgt id='1880'> +7.6269691e+01 </wgt>
<wgt id='1881'> +7.6105360e+01 </wgt>
<wgt id='1882'> +7.6971893e+01 </wgt>
<wgt id='1883'> +7.6609350e+01 </wgt>
<wgt id='1884'> +7.5993628e+01 </wgt>
<wgt id='1885'> +7.6430044e+01 </wgt>
<wgt id='1886'> +7.6765772e+01 </wgt>
<wgt id='1887'> +7.6675121e+01 </wgt>
<wgt id='1888'> +7.6509545e+01 </wgt>
<wgt id='1889'> +7.6271853e+01 </wgt>
<wgt id='1890'> +7.7140117e+01 </wgt>
<wgt id='1891'> +7.6184801e+01 </wgt>
<wgt id='1892'> +7.7017590e+01 </wgt>
<wgt id='1893'> +7.6615340e+01 </wgt>
<wgt id='1894'> +7.6212826e+01 </wgt>
<wgt id='1895'> +7.6315183e+01 </wgt>
<wgt id='1896'> +7.6326583e+01 </wgt>
<wgt id='1897'> +7.6678104e+01 </wgt>
<wgt id='1898'> +7.6706260e+01 </wgt>
<wgt id='1899'> +7.6895166e+01 </wgt>
<wgt id='1900'> +7.6388041e+01 </wgt>
<wgt id='1901'> +7.6589362e+01 </wgt>
<wgt id='1902'> +7.6610995e+01 </wgt>
<wgt id='1903'> +7.6630601e+01 </wgt>
<wgt id='1904'> +7.6580839e+01 </wgt>
<wgt id='1905'> +7.6717395e+01 </wgt>
<wgt id='1906'> +7.6671007e+01 </wgt>
<wgt id='1907'> +7.6637098e+01 </wgt>
<wgt id='1908'> +7.6598075e+01 </wgt>
<wgt id='1909'> +7.6604808e+01 </wgt>
<wgt id='1910'> +7.6556646e+01 </wgt>
<wgt id='1911'> +7.6811230e+01 </wgt>
<wgt id='1912'> +7.6641595e+01 </wgt>
<wgt id='1913'> +7.6637543e+01 </wgt>
<wgt id='1914'> +7.6691152e+01 </wgt>
<wgt id='1915'> +7.6593528e+01 </wgt>
<wgt id='1916'> +7.6746921e+01 </wgt>
<wgt id='1917'> +7.6634381e+01 </wgt>
<wgt id='1918'> +7.6656587e+01 </wgt>
<wgt id='1919'> +7.6660001e+01 </wgt>
<wgt id='1920'> +7.6504475e+01 </wgt>
<wgt id='1921'> +7.6622467e+01 </wgt>
<wgt id='1922'> +7.6644999e+01 </wgt>
<wgt id='1923'> +7.6714908e+01 </wgt>
<wgt id='1924'> +7.6625443e+01 </wgt>
<wgt id='1925'> +7.6596101e+01 </wgt>
<wgt id='1926'> +7.6771726e+01 </wgt>
<wgt id='1927'> +7.6575090e+01 </wgt>
<wgt id='1928'> +7.6612798e+01 </wgt>
<wgt id='1929'> +7.6624369e+01 </wgt>
<wgt id='1930'> +7.6699698e+01 </wgt>
<wgt id='1931'> +7.6657781e+01 </wgt>
<wgt id='1932'> +7.6617480e+01 </wgt>
<wgt id='1933'> +7.6664906e+01 </wgt>
<wgt id='1934'> +7.6643248e+01 </wgt>
<wgt id='1935'> +7.6701676e+01 </wgt>
<wgt id='1936'> +7.6583948e+01 </wgt>
<wgt id='1937'> +7.6644960e+01 </wgt>
<wgt id='1938'> +7.6576442e+01 </wgt>
<wgt id='1939'> +7.6631683e+01 </wgt>
<wgt id='1940'> +7.6625114e+01 </wgt>
<wgt id='1941'> +7.6653063e+01 </wgt>
<wgt id='1942'> +7.6584433e+01 </wgt>
<wgt id='1943'> +7.6624938e+01 </wgt>
<wgt id='1944'> +7.6613660e+01 </wgt>
<wgt id='1945'> +7.6674959e+01 </wgt>
<wgt id='1946'> +7.6612040e+01 </wgt>
<wgt id='1947'> +7.6615629e+01 </wgt>
<wgt id='1948'> +7.6645519e+01 </wgt>
<wgt id='1949'> +7.6639180e+01 </wgt>
<wgt id='1950'> +7.6679098e+01 </wgt>
<wgt id='1951'> +7.6655746e+01 </wgt>
<wgt id='1952'> +7.6647521e+01 </wgt>
<wgt id='1953'> +7.6608082e+01 </wgt>
<wgt id='1954'> +7.6642676e+01 </wgt>
<wgt id='1955'> +7.6661971e+01 </wgt>
<wgt id='1956'> +7.6642031e+01 </wgt>
<wgt id='1957'> +7.6643430e+01 </wgt>
<wgt id='1958'> +7.6642477e+01 </wgt>
<wgt id='1959'> +7.6642517e+01 </wgt>
<wgt id='1960'> +7.6642913e+01 </wgt>
<wgt id='1961'> +7.6642346e+01 </wgt>
<wgt id='1962'> +7.6643672e+01 </wgt>
</rwgt>
</event>
<event npLO=" -1 " npNLO=" 0 ">
 7      0 +1.5146096e+02 4.40121430e+01 7.54677110e-03 1.15636090e-01
       21 -1    0    0  501  502 +0.0000000000e+00 +0.0000000000e+00 +1.0632712000e+02 1.0632712000e+02 0.0000000000e+00 0.0000e+00 9.0000e+00
       -1 -1    0    0    0  501 +0.0000000000e+00 +0.0000000000e+00 -1.5729614000e+02 1.5729614000e+02 0.0000000000e+00 0.0000e+00 9.0000e+00
       23  2    1    2    0    0 +3.0153266000e+01 +4.2937221000e+01 -1.3123852000e+02 1.6772739000e+02 9.0311141000e+01 0.0000e+00 0.0000e+00
       11  1    3    3    0    0 +3.5167096000e+01 +5.2991700000e+01 -6.4998775000e+01 9.0937812000e+01 0.0000000000e+00 0.0000e+00 9.0000e+00
      -11  1    3    3    0    0 +9.9959664000e+00 -1.8873924000e+01 -3.8904751000e+01 4.4381572000e+01 0.0000000000e+00 0.0000e+00 9.0000e+00
       22  1    3    3    0    0 -1.5009796000e+01 +8.8194442000e+00 -2.7334996000e+01 3.2408002000e+01 0.0000000000e+00 0.0000e+00 9.0000e+00
       -1  1    1    2    0  502 -3.0153266000e+01 -4.2937221000e+01 +8.0269508000e+01 9.5895872000e+01 0.0000000000e+00 0.0000e+00 9.0000e+00
#aMCatNLO 2  0  0  1  1 0.54017446E+02 0.00000000E+00 -9  6  0 0.00000000E+00 0.00000000E+00 0.00000000E+00 0.00000000E+00 0.00000000E+00
<rwgt>
<wgt id='1001'> +1.5146000e+02 </wgt>
<wgt id='1002'> +1.5146000e+02 </wgt>
<wgt id='1003'> +1.3633000e+02 </wgt>
<wgt id='1004'> +1.5061000e+02 </wgt>
<wgt id='1005'> +1.5269000e+02 </wgt>
<wgt id='1006'> +1.5343000e+02 </wgt>
<wgt id='1007'> +1.3875000e+02 </wgt>
<wgt id='1008'> +1.4608000e+02 </wgt>
<wgt id='1009'> +1.5251000e+02 </wgt>
<wgt id='1010'> +1.5212000e+02 </wgt>
<wgt id='1011'> +1.5415000e+02 </wgt>
<wgt id='1012'> +1.4747000e+02 </wgt>
<wgt id='1013'> +1.4302000e+02 </wgt>
<wgt id='1014'> +1.5444000e+02 </wgt>
<wgt id='1015'> +1.5524000e+02 </wgt>
<wgt id='1016'> +1.4999000e+02 </wgt>
<wgt id='1017'> +1.5000000e+02 </wgt>
<wgt id='1018'> +1.5614000e+02 </wgt>
<wgt id='1019'> +1.4718000e+02 </wgt>
<wgt id='1020'> +1.4910000e+02 </wgt>
<wgt id='1021'> +1.5109000e+02 </wgt>
<wgt id='1022'> +1.6084000e+02 </wgt>
<wgt id='1023'> +1.5367000e+02 </wgt>
<wgt id='1024'> +1.4989000e+02 </wgt>
<wgt id='1025'> +1.5985000e+02 </wgt>
<wgt id='1026'> +1.5742000e+02 </wgt>
<wgt id='1027'> +1.5516000e+02 </wgt>
<wgt id='1028'> +1.5145000e+02 </wgt>
<wgt id='1029'> +1.5031000e+02 </wgt>
<wgt id='1030'> +1.5281000e+02 </wgt>
<wgt id='1031'> +1.4914000e+02 </wgt>
<wgt id='1032'> +1.5573000e+02 </wgt>
<wgt id='1033'> +1.5625000e+02 </wgt>
<wgt id='1034'> +1.4982000e+02 </wgt>
<wgt id='1035'> +1.5368000e+02 </wgt>
<wgt id='1036'> +1.5282000e+02 </wgt>
<wgt id='1037'> +1.5781000e+02 </wgt>
<wgt id='1038'> +1.5513000e+02 </wgt>
<wgt id='1039'> +1.5261000e+02 </wgt>
<wgt id='1040'> +1.5023000e+02 </wgt>
<wgt id='1041'> +1.4289000e+02 </wgt>
<wgt id='1042'> +1.5470000e+02 </wgt>
<wgt id='1043'> +1.4783000e+02 </wgt>
<wgt id='1044'> +1.4926000e+02 </wgt>
<wgt id='1045'> +1.5311000e+02 </wgt>
<wgt id='1046'> +1.4928000e+02 </wgt>
<wgt id='1047'> +1.5184000e+02 </wgt>
<wgt id='1048'> +1.4714000e+02 </wgt>
<wgt id='1049'> +1.4690000e+02 </wgt>
<wgt id='1050'> +1.5037000e+02 </wgt>
<wgt id='1051'> +1.5439000e+02 </wgt>
<wgt id='1052'> +1.5261000e+02 </wgt>
<wgt id='1053'> +1.5182000e+02 </wgt>
<wgt id='1054'> +1.5157000e+02 </wgt>
<wgt id='1055'> +1.5512000e+02 </wgt>
<wgt id='1056'> +1.5121000e+02 </wgt>
<wgt id='1057'> +1.5441000e+02 </wgt>
<wgt id='1058'> +1.4507000e+02 </wgt>
<wgt id='1059'> +1.5463000e+02 </wgt>
<wgt id='1060'> +1.4962000e+02 </wgt>
<wgt id='1061'> +1.5396000e+02 </wgt>
<wgt id='1062'> +1.5360000e+02 </wgt>
<wgt id='1063'> +1.5280000e+02 </wgt>
<wgt id='1064'> +1.5234000e+02 </wgt>
<wgt id='1065'> +1.5355000e+02 </wgt>
<wgt id='1066'> +1.4478000e+02 </wgt>
<wgt id='1067'> +1.5741000e+02 </wgt>
<wgt id='1068'> +1.5401000e+02 </wgt>
<wgt id='1069'> +1.5254000e+02 </wgt>
<wgt id='1070'> +1.4945000e+02 </wgt>
<wgt id='1071'> +1.5101000e+02 </wgt>
<wgt id='1072'> +1.5504000e+02 </wgt>
<wgt id='1073'> +1.5131000e+02 </wgt>
<wgt id='1074'> +1.5064000e+02 </wgt>
<wgt id='1075'> +1.4081000e+02 </wgt>
<wgt id='1076'> +1.5427000e+02 </wgt>
<wgt id='1077'> +1.4821000e+02 </wgt>
<wgt id='1078'> +1.5181000e+02 </wgt>
<wgt id='1079'> +1.5238000e+02 </wgt>
<wgt id='1080'> +1.5272000e+02 </wgt>
<wgt id='1081'> +1.5101000e+02 </wgt>
<wgt id='1082'> +1.5636000e+02 </wgt>
<wgt id='1083'> +1.5345000e+02 </wgt>
<wgt id='1084'> +1.5370000e+02 </wgt>
<wgt id='1085'> +1.4785000e+02 </wgt>
<wgt id='1086'> +1.5321000e+02 </wgt>
<wgt id='1087'> +1.4928000e+02 </wgt>
<wgt id='1088'> +1.4977000e+02 </wgt>
<wgt id='1089'> +1.5211000e+02 </wgt>
<wgt id='1090'> +1.4826000e+02 </wgt>
<wgt id='1091'> +1.5375000e+02 </wgt>
<wgt id='1092'> +1.5371000e+02 </wgt>
<wgt id='1093'> +1.4971000e+02 </wgt>
<wgt id='1094'> +1.5986000e+02 </wgt>
<wgt id='1095'> +1.5124000e+02 </wgt>
<wgt id='1096'> +1.4827000e+02 </wgt>
<wgt id='1097'> +1.4160000e+02 </wgt>
<wgt id='1098'> +1.5122000e+02 </wgt>
<wgt id='1099'> +1.5505000e+02 </wgt>
<wgt id='1100'> +1.5727000e+02 </wgt>
<wgt id='1101'> +1.5544000e+02 </wgt>
<wgt id='1102'> +1.4406000e+02 </wgt>
<wgt id='1103'> +1.5077000e+02 </wgt>
<wgt id='1104'> +1.5166000e+02 </wgt>
<wgt id='1105'> +1.5146096e+02 </wgt>
<wgt id='1106'> +6.8711152e+01 </wgt>
<wgt id='1107'> +8.4385863e+01 </wgt>
<wgt id='1108'> +7.7525734e+01 </wgt>
<wgt id='1109'> +7.0340008e+01 </wgt>
<wgt id='1110'> +8.6386301e+01 </wgt>
<wgt id='1111'> +7.2868274e+01 </wgt>
<wgt id='1112'> +6.6114241e+01 </wgt>
<wgt id='1113'> +8.1196532e+01 </wgt>
<wgt id='1114'> +7.8151702e+01 </wgt>
<wgt id='1115'> +8.5277926e+01 </wgt>
<wgt id='1116'> +7.8137271e+01 </wgt>
<wgt id='1117'> +7.9254337e+01 </wgt>
<wgt id='1118'> +7.9930304e+01 </wgt>
<wgt id='1119'> +7.6556946e+01 </wgt>
<wgt id='1120'> +7.9809120e+01 </wgt>
<wgt id='1121'> +7.8235322e+01 </wgt>
<wgt id='1122'> +7.4833492e+01 </wgt>
<wgt id='1123'> +7.6702459e+01 </wgt>
<wgt id='1124'> +7.8762640e+01 </wgt>
<wgt id='1125'> +7.7939549e+01 </wgt>
<wgt id='1126'> +7.5568211e+01 </wgt>
<wgt id='1127'> +7.6545683e+01 </wgt>
<wgt id='1128'> +7.7250939e+01 </wgt>
<wgt id='1129'> +7.9448633e+01 </wgt>
<wgt id='1130'> +7.8587622e+01 </wgt>
<wgt id='1131'> +8.0594171e+01 </wgt>
<wgt id='1132'> +7.7227933e+01 </wgt>
<wgt id='1133'> +7.8593449e+01 </wgt>
<wgt id='1134'> +7.5413100e+01 </wgt>
<wgt id='1135'> +7.6546893e+01 </wgt>
<wgt id='1136'> +7.9721445e+01 </wgt>
<wgt id='1137'> +7.9256533e+01 </wgt>
<wgt id='1138'> +7.6024638e+01 </wgt>
<wgt id='1139'> +7.6359028e+01 </wgt>
<wgt id='1140'> +7.8051290e+01 </wgt>
<wgt id='1141'> +8.4711910e+01 </wgt>
<wgt id='1142'> +7.6172419e+01 </wgt>
<wgt id='1143'> +7.8630564e+01 </wgt>
<wgt id='1144'> +7.9884420e+01 </wgt>
<wgt id='1145'> +7.9731313e+01 </wgt>
<wgt id='1146'> +7.6959624e+01 </wgt>
<wgt id='1147'> +8.2904653e+01 </wgt>
<wgt id='1148'> +7.3920396e+01 </wgt>
<wgt id='1149'> +8.0529692e+01 </wgt>
<wgt id='1150'> +7.7859346e+01 </wgt>
<wgt id='1151'> +7.8615180e+01 </wgt>
<wgt id='1152'> +7.6962179e+01 </wgt>
<wgt id='1153'> +7.6547883e+01 </wgt>
<wgt id='1154'> +7.8697446e+01 </wgt>
<wgt id='1155'> +8.0123380e+01 </wgt>
<wgt id='1156'> +7.6815285e+01 </wgt>
<wgt id='1157'> +8.0685257e+01 </wgt>
<wgt id='1158'> +7.9212893e+01 </wgt>
<wgt id='1159'> +7.7836071e+01 </wgt>
<wgt id='1160'> +7.9575377e+01 </wgt>
<wgt id='1161'> +7.6508799e+01 </wgt>
<wgt id='1162'> +7.3952982e+01 </wgt>
<wgt id='1163'> +7.8794764e+01 </wgt>
<wgt id='1164'> +7.9695400e+01 </wgt>
<wgt id='1165'> +7.6208394e+01 </wgt>
<wgt id='1166'> +7.6790978e+01 </wgt>
<wgt id='1167'> +7.7591035e+01 </wgt>
<wgt id='1168'> +8.0169714e+01 </wgt>
<wgt id='1169'> +8.0116265e+01 </wgt>
<wgt id='1170'> +7.8463081e+01 </wgt>
<wgt id='1171'> +7.9887238e+01 </wgt>
<wgt id='1172'> +7.7408664e+01 </wgt>
<wgt id='1173'> +7.8788595e+01 </wgt>
<wgt id='1174'> +8.0388796e+01 </wgt>
<wgt id='1175'> +7.9883930e+01 </wgt>
<wgt id='1176'> +7.7649186e+01 </wgt>
<wgt id='1177'> +7.7606896e+01 </wgt>
<wgt id='1178'> +7.6446761e+01 </wgt>
<wgt id='1179'> +8.0335869e+01 </wgt>
<wgt id='1180'> +7.7363452e+01 </wgt>
<wgt id='1181'> +8.1208385e+01 </wgt>
<wgt id='1182'> +7.9692403e+01 </wgt>
<wgt id='1183'> +7.6718603e+01 </wgt>
<wgt id='1184'> +7.5010440e+01 </wgt>
<wgt id='1185'> +7.9943674e+01 </wgt>
<wgt id='1186'> +7.6312374e+01 </wgt>
<wgt id='1187'> +7.5558090e+01 </wgt>
<wgt id='1188'> +7.8313066e+01 </wgt>
<wgt id='1189'> +7.4607327e+01 </wgt>
<wgt id='1190'> +8.2978745e+01 </wgt>
<wgt id='1191'> +7.8669860e+01 </wgt>
<wgt id='1192'> +7.8889721e+01 </wgt>
<wgt id='1193'> +7.7025896e+01 </wgt>
<wgt id='1194'> +7.6804675e+01 </wgt>
<wgt id='1195'> +7.8438962e+01 </wgt>
<wgt id='1196'> +7.8587622e+01 </wgt>
<wgt id='1197'> +7.7533990e+01 </wgt>
<wgt id='1198'> +7.6469583e+01 </wgt>
<wgt id='1199'> +7.8645080e+01 </wgt>
<wgt id='1200'> +7.6652157e+01 </wgt>
<wgt id='1201'> +7.6753966e+01 </wgt>
<wgt id='1202'> +7.9766975e+01 </wgt>
<wgt id='1203'> +7.1243662e+01 </wgt>
<wgt id='1204'> +7.6106248e+01 </wgt>
<wgt id='1205'> +7.8500151e+01 </wgt>
<wgt id='1206'> +7.4195167e+01 </wgt>
<wgt id='1207'> +7.6025341e+01 </wgt>
<wgt id='1208'> +7.8395953e+01 </wgt>
<wgt id='1209'> +7.8884068e+01 </wgt>
<wgt id='1210'> +7.7648842e+01 </wgt>
<wgt id='1211'> +7.9871026e+01 </wgt>
<wgt id='1212'> +7.8793819e+01 </wgt>
<wgt id='1213'> +7.9512986e+01 </wgt>
<wgt id='1214'> +7.9718535e+01 </wgt>
<wgt id='1215'> +7.5127475e+01 </wgt>
<wgt id='1216'> +7.8629864e+01 </wgt>
<wgt id='1217'> +7.8694461e+01 </wgt>
<wgt id='1218'> +7.8567397e+01 </wgt>
<wgt id='1219'> +7.8715935e+01 </wgt>
<wgt id='1220'> +7.8922581e+01 </wgt>
<wgt id='1221'> +7.8836503e+01 </wgt>
<wgt id='1222'> +7.8512844e+01 </wgt>
<wgt id='1223'> +7.8780672e+01 </wgt>
<wgt id='1224'> +7.8437012e+01 </wgt>
<wgt id='1225'> +7.8795132e+01 </wgt>
<wgt id='1226'> +7.8048268e+01 </wgt>
<wgt id='1227'> +7.8618876e+01 </wgt>
<wgt id='1228'> +7.9048830e+01 </wgt>
<wgt id='1229'> +7.8461414e+01 </wgt>
<wgt id='1230'> +7.9189372e+01 </wgt>
<wgt id='1231'> +7.8331631e+01 </wgt>
<wgt id='1232'> +7.9034365e+01 </wgt>
<wgt id='1233'> +7.8649682e+01 </wgt>
<wgt id='1234'> +7.8845393e+01 </wgt>
<wgt id='1235'> +7.8232081e+01 </wgt>
<wgt id='1236'> +7.8267735e+01 </wgt>
<wgt id='1237'> +7.8925891e+01 </wgt>
<wgt id='1238'> +7.8700796e+01 </wgt>
<wgt id='1239'> +7.8596267e+01 </wgt>
<wgt id='1240'> +7.8722729e+01 </wgt>
<wgt id='1241'> +7.8338797e+01 </wgt>
<wgt id='1242'> +7.8537540e+01 </wgt>
<wgt id='1243'> +7.8840946e+01 </wgt>
<wgt id='1244'> +7.8617963e+01 </wgt>
<wgt id='1245'> +7.8624202e+01 </wgt>
<wgt id='1246'> +7.8443512e+01 </wgt>
<wgt id='1247'> +7.9103384e+01 </wgt>
<wgt id='1248'> +7.8178473e+01 </wgt>
<wgt id='1249'> +7.9133352e+01 </wgt>
<wgt id='1250'> +7.8470539e+01 </wgt>
<wgt id='1251'> +7.8517229e+01 </wgt>
<wgt id='1252'> +7.8184815e+01 </wgt>
<wgt id='1253'> +7.8545101e+01 </wgt>
<wgt id='1254'> +7.8093415e+01 </wgt>
<wgt id='1255'> +7.8669882e+01 </wgt>
<wgt id='1256'> +7.8671837e+01 </wgt>
<wgt id='1257'> +7.8098873e+01 </wgt>
<wgt id='1258'> +7.8565130e+01 </wgt>
<wgt id='1259'> +7.9105623e+01 </wgt>
<wgt id='1260'> +7.8440272e+01 </wgt>
<wgt id='1261'> +7.8626045e+01 </wgt>
<wgt id='1262'> +7.8503207e+01 </wgt>
<wgt id='1263'> +7.8781261e+01 </wgt>
<wgt id='1264'> +7.8956092e+01 </wgt>
<wgt id='1265'> +7.8565260e+01 </wgt>
<wgt id='1266'> +7.8758550e+01 </wgt>
<wgt id='1267'> +7.8782201e+01 </wgt>
<wgt id='1268'> +7.8624756e+01 </wgt>
<wgt id='1269'> +7.8648274e+01 </wgt>
<wgt id='1270'> +7.8738972e+01 </wgt>
<wgt id='1271'> +7.8577318e+01 </wgt>
<wgt id='1272'> +7.8686352e+01 </wgt>
<wgt id='1273'> +7.8556863e+01 </wgt>
<wgt id='1274'> +7.8637381e+01 </wgt>
<wgt id='1275'> +7.8670946e+01 </wgt>
<wgt id='1276'> +7.8646074e+01 </wgt>
<wgt id='1277'> +7.8704925e+01 </wgt>
<wgt id='1278'> +7.8740573e+01 </wgt>
<wgt id='1279'> +7.8712122e+01 </wgt>
<wgt id='1280'> +7.8615603e+01 </wgt>
<wgt id='1281'> +7.8699210e+01 </wgt>
<wgt id='1282'> +7.8742091e+01 </wgt>
<wgt id='1283'> +7.8500725e+01 </wgt>
<wgt id='1284'> +7.8491347e+01 </wgt>
<wgt id='1285'> +7.8640969e+01 </wgt>
<wgt id='1286'> +7.8590810e+01 </wgt>
<wgt id='1287'> +7.8584319e+01 </wgt>
<wgt id='1288'> +7.8649346e+01 </wgt>
<wgt id='1289'> +7.8460617e+01 </wgt>
<wgt id='1290'> +7.8734173e+01 </wgt>
<wgt id='1291'> +7.8825371e+01 </wgt>
<wgt id='1292'> +7.8601054e+01 </wgt>
<wgt id='1293'> +7.8662306e+01 </wgt>
<wgt id='1294'> +7.8639500e+01 </wgt>
<wgt id='1295'> +7.8801833e+01 </wgt>
<wgt id='1296'> +7.8552444e+01 </wgt>
<wgt id='1297'> +7.8557183e+01 </wgt>
<wgt id='1298'> +7.8581132e+01 </wgt>
<wgt id='1299'> +7.8586174e+01 </wgt>
<wgt id='1300'> +7.8683182e+01 </wgt>
<wgt id='1301'> +7.8568817e+01 </wgt>
<wgt id='1302'> +7.8614986e+01 </wgt>
<wgt id='1303'> +7.8532925e+01 </wgt>
<wgt id='1304'> +7.8647482e+01 </wgt>
<wgt id='1305'> +7.8683264e+01 </wgt>
<wgt id='1306'> +7.8613995e+01 </wgt>
<wgt id='1307'> +7.8668344e+01 </wgt>
<wgt id='1308'> +7.8707651e+01 </wgt>
<wgt id='1309'> +7.8667835e+01 </wgt>
<wgt id='1310'> +7.8642477e+01 </wgt>
<wgt id='1311'> +7.8625713e+01 </wgt>
<wgt id='1312'> +7.8648175e+01 </wgt>
<wgt id='1313'> +7.8607021e+01 </wgt>
<wgt id='1314'> +7.8581539e+01 </wgt>
<wgt id='1315'> +7.8585967e+01 </wgt>
<wgt id='1316'> +7.8700162e+01 </wgt>
<wgt id='1317'> +7.8220745e+01 </wgt>
<wgt id='1318'> +7.9258904e+01 </wgt>
<wgt id='1319'> +8.8695016e+01 </wgt>
<wgt id='1320'> +7.4304500e+01 </wgt>
<wgt id='1321'> +7.4730816e+01 </wgt>
<wgt id='1322'> +7.4502462e+01 </wgt>
<wgt id='1323'> +7.5113137e+01 </wgt>
<wgt id='1324'> +7.3413776e+01 </wgt>
<wgt id='1325'> +7.4534184e+01 </wgt>
<wgt id='1326'> +7.4365340e+01 </wgt>
<wgt id='1327'> +7.4854821e+01 </wgt>
<wgt id='1328'> +7.4666976e+01 </wgt>
<wgt id='1329'> +7.3314975e+01 </wgt>
<wgt id='1330'> +7.4795171e+01 </wgt>
<wgt id='1331'> +7.3149264e+01 </wgt>
<wgt id='1332'> +7.5384570e+01 </wgt>
<wgt id='1333'> +7.2758899e+01 </wgt>
<wgt id='1334'> +7.4703529e+01 </wgt>
<wgt id='1335'> +7.6069239e+01 </wgt>
<wgt id='1336'> +7.2041252e+01 </wgt>
<wgt id='1337'> +7.5777242e+01 </wgt>
<wgt id='1338'> +7.2629659e+01 </wgt>
<wgt id='1339'> +7.5136413e+01 </wgt>
<wgt id='1340'> +7.3352837e+01 </wgt>
<wgt id='1341'> +7.4732956e+01 </wgt>
<wgt id='1342'> +7.3355414e+01 </wgt>
<wgt id='1343'> +7.4341016e+01 </wgt>
<wgt id='1344'> +7.4164983e+01 </wgt>
<wgt id='1345'> +7.3416721e+01 </wgt>
<wgt id='1346'> +7.5013215e+01 </wgt>
<wgt id='1347'> +7.4337610e+01 </wgt>
<wgt id='1348'> +7.4216681e+01 </wgt>
<wgt id='1349'> +7.4398969e+01 </wgt>
<wgt id='1350'> +7.4271155e+01 </wgt>
<wgt id='1351'> +7.5395638e+01 </wgt>
<wgt id='1352'> +7.2906681e+01 </wgt>
<wgt id='1353'> +7.4272818e+01 </wgt>
<wgt id='1354'> +7.4357585e+01 </wgt>
<wgt id='1355'> +7.4566300e+01 </wgt>
<wgt id='1356'> +7.4149594e+01 </wgt>
<wgt id='1357'> +7.4970982e+01 </wgt>
<wgt id='1358'> +7.2927913e+01 </wgt>
<wgt id='1359'> +7.3444967e+01 </wgt>
<wgt id='1360'> +7.4461690e+01 </wgt>
<wgt id='1361'> +7.3969871e+01 </wgt>
<wgt id='1362'> +7.4897946e+01 </wgt>
<wgt id='1363'> +7.5160553e+01 </wgt>
<wgt id='1364'> +7.3303319e+01 </wgt>
<wgt id='1365'> +7.3445374e+01 </wgt>
<wgt id='1366'> +7.3084376e+01 </wgt>
<wgt id='1367'> +7.2245021e+01 </wgt>
<wgt id='1368'> +7.4494642e+01 </wgt>
<wgt id='1369'> +7.3095401e+01 </wgt>
<wgt id='1370'> +7.3593589e+01 </wgt>
<wgt id='1371'> +7.3729193e+01 </wgt>
<wgt id='1372'> +7.2960943e+01 </wgt>
<wgt id='1373'> +7.3273299e+01 </wgt>
<wgt id='1374'> +7.4541496e+01 </wgt>
<wgt id='1375'> +7.3813069e+01 </wgt>
<wgt id='1376'> +7.6338126e+01 </wgt>
<wgt id='1377'> +7.3463137e+01 </wgt>
<wgt id='1378'> +7.5002605e+01 </wgt>
<wgt id='1379'> +7.3191682e+01 </wgt>
<wgt id='1380'> +7.2457949e+01 </wgt>
<wgt id='1381'> +7.3822696e+01 </wgt>
<wgt id='1382'> +6.9360693e+01 </wgt>
<wgt id='1383'> +7.4315772e+01 </wgt>
<wgt id='1384'> +7.3730206e+01 </wgt>
<wgt id='1385'> +7.9458702e+01 </wgt>
<wgt id='1386'> +7.9891915e+01 </wgt>
<wgt id='1387'> +7.8977751e+01 </wgt>
<wgt id='1388'> +7.9446509e+01 </wgt>
<wgt id='1389'> +7.9472791e+01 </wgt>
<wgt id='1390'> +7.9676838e+01 </wgt>
<wgt id='1391'> +7.9200226e+01 </wgt>
<wgt id='1392'> +7.9242472e+01 </wgt>
<wgt id='1393'> +7.9607161e+01 </wgt>
<wgt id='1394'> +7.9523616e+01 </wgt>
<wgt id='1395'> +7.9377645e+01 </wgt>
<wgt id='1396'> +7.9129567e+01 </wgt>
<wgt id='1397'> +7.9626563e+01 </wgt>
<wgt id='1398'> +7.9453559e+01 </wgt>
<wgt id='1399'> +7.9459171e+01 </wgt>
<wgt id='1400'> +7.9649260e+01 </wgt>
<wgt id='1401'> +7.9310163e+01 </wgt>
<wgt id='1402'> +7.8790397e+01 </wgt>
<wgt id='1403'> +7.9765623e+01 </wgt>
<wgt id='1404'> +7.9489371e+01 </wgt>
<wgt id='1405'> +7.9454401e+01 </wgt>
<wgt id='1406'> +7.9380805e+01 </wgt>
<wgt id='1407'> +7.9590617e+01 </wgt>
<wgt id='1408'> +7.8922935e+01 </wgt>
<wgt id='1409'> +8.0533433e+01 </wgt>
<wgt id='1410'> +7.9600248e+01 </wgt>
<wgt id='1411'> +7.9064561e+01 </wgt>
<wgt id='1412'> +7.9878817e+01 </wgt>
<wgt id='1413'> +7.8980439e+01 </wgt>
<wgt id='1414'> +7.9068737e+01 </wgt>
<wgt id='1415'> +7.9753484e+01 </wgt>
<wgt id='1416'> +7.8568395e+01 </wgt>
<wgt id='1417'> +7.9896345e+01 </wgt>
<wgt id='1418'> +7.9763309e+01 </wgt>
<wgt id='1419'> +7.8805281e+01 </wgt>
<wgt id='1420'> +7.9273887e+01 </wgt>
<wgt id='1421'> +7.9309512e+01 </wgt>
<wgt id='1422'> +7.9648121e+01 </wgt>
<wgt id='1423'> +7.9230251e+01 </wgt>
<wgt id='1424'> +7.9744935e+01 </wgt>
<wgt id='1425'> +7.8874970e+01 </wgt>
<wgt id='1426'> +8.0237043e+01 </wgt>
<wgt id='1427'> +7.9287951e+01 </wgt>
<wgt id='1428'> +7.9456714e+01 </wgt>
<wgt id='1429'> +7.8861312e+01 </wgt>
<wgt id='1430'> +8.0094518e+01 </wgt>
<wgt id='1431'> +7.9575431e+01 </wgt>
<wgt id='1432'> +7.9736015e+01 </wgt>
<wgt id='1433'> +8.0037546e+01 </wgt>
<wgt id='1434'> +7.9619214e+01 </wgt>
<wgt id='1435'> +7.9116396e+01 </wgt>
<wgt id='1436'> +7.7262665e+01 </wgt>
<wgt id='1437'> +7.7243748e+01 </wgt>
<wgt id='1438'> +7.7364930e+01 </wgt>
<wgt id='1439'> +7.7266925e+01 </wgt>
<wgt id='1440'> +7.7071592e+01 </wgt>
<wgt id='1441'> +7.7676145e+01 </wgt>
<wgt id='1442'> +7.7136251e+01 </wgt>
<wgt id='1443'> +7.7079768e+01 </wgt>
<wgt id='1444'> +7.7141787e+01 </wgt>
<wgt id='1445'> +7.6887762e+01 </wgt>
<wgt id='1446'> +7.7333447e+01 </wgt>
<wgt id='1447'> +7.7194603e+01 </wgt>
<wgt id='1448'> +7.7167662e+01 </wgt>
<wgt id='1449'> +7.7233387e+01 </wgt>
<wgt id='1450'> +7.7274264e+01 </wgt>
<wgt id='1451'> +7.7273720e+01 </wgt>
<wgt id='1452'> +7.7252863e+01 </wgt>
<wgt id='1453'> +7.7385498e+01 </wgt>
<wgt id='1454'> +7.7371923e+01 </wgt>
<wgt id='1455'> +7.7415808e+01 </wgt>
<wgt id='1456'> +7.7475564e+01 </wgt>
<wgt id='1457'> +7.7421915e+01 </wgt>
<wgt id='1458'> +7.7104523e+01 </wgt>
<wgt id='1459'> +7.7404075e+01 </wgt>
<wgt id='1460'> +7.7296471e+01 </wgt>
<wgt id='1461'> +7.6854884e+01 </wgt>
<wgt id='1462'> +7.7578305e+01 </wgt>
<wgt id='1463'> +7.6712979e+01 </wgt>
<wgt id='1464'> +7.7680037e+01 </wgt>
<wgt id='1465'> +7.3484229e+01 </wgt>
<wgt id='1466'> +7.4854515e+01 </wgt>
<wgt id='1467'> +7.4614688e+01 </wgt>
<wgt id='1468'> +7.4919750e+01 </wgt>
<wgt id='1469'> +7.5593403e+01 </wgt>
<wgt id='1470'> +7.4579919e+01 </wgt>
<wgt id='1471'> +7.4851331e+01 </wgt>
<wgt id='1472'> +7.4527843e+01 </wgt>
<wgt id='1473'> +7.5101425e+01 </wgt>
<wgt id='1474'> +7.5091219e+01 </wgt>
<wgt id='1475'> +7.4801499e+01 </wgt>
<wgt id='1476'> +7.5760752e+01 </wgt>
<wgt id='1477'> +7.4322891e+01 </wgt>
<wgt id='1478'> +7.4287383e+01 </wgt>
<wgt id='1479'> +7.4927473e+01 </wgt>
<wgt id='1480'> +7.4191053e+01 </wgt>
<wgt id='1481'> +7.4991413e+01 </wgt>
<wgt id='1482'> +7.4314869e+01 </wgt>
<wgt id='1483'> +7.5071211e+01 </wgt>
<wgt id='1484'> +7.5632506e+01 </wgt>
<wgt id='1485'> +7.4411293e+01 </wgt>
<wgt id='1486'> +7.4799385e+01 </wgt>
<wgt id='1487'> +7.4890748e+01 </wgt>
<wgt id='1488'> +7.4798483e+01 </wgt>
<wgt id='1489'> +7.5353287e+01 </wgt>
<wgt id='1490'> +7.4832048e+01 </wgt>
<wgt id='1491'> +7.4606535e+01 </wgt>
<wgt id='1492'> +7.4815863e+01 </wgt>
<wgt id='1493'> +7.5174362e+01 </wgt>
<wgt id='1494'> +7.4607024e+01 </wgt>
<wgt id='1495'> +7.4923964e+01 </wgt>
<wgt id='1496'> +7.5499048e+01 </wgt>
<wgt id='1497'> +7.4720211e+01 </wgt>
<wgt id='1498'> +7.4990765e+01 </wgt>
<wgt id='1499'> +7.5192427e+01 </wgt>
<wgt id='1500'> +7.5443326e+01 </wgt>
<wgt id='1501'> +7.4992865e+01 </wgt>
<wgt id='1502'> +7.4703988e+01 </wgt>
<wgt id='1503'> +7.5194845e+01 </wgt>
<wgt id='1504'> +7.4442305e+01 </wgt>
<wgt id='1505'> +7.5063611e+01 </wgt>
<wgt id='1506'> +7.5132252e+01 </wgt>
<wgt id='1507'> +7.4873963e+01 </wgt>
<wgt id='1508'> +7.4906707e+01 </wgt>
<wgt id='1509'> +7.4681522e+01 </wgt>
<wgt id='1510'> +7.5296466e+01 </wgt>
<wgt id='1511'> +7.4885393e+01 </wgt>
<wgt id='1512'> +7.4896051e+01 </wgt>
<wgt id='1513'> +7.4662045e+01 </wgt>
<wgt id='1514'> +7.4659787e+01 </wgt>
<wgt id='1515'> +7.4919354e+01 </wgt>
<wgt id='1516'> +7.4906414e+01 </wgt>
<wgt id='1517'> +7.4759747e+01 </wgt>
<wgt id='1518'> +7.4840115e+01 </wgt>
<wgt id='1519'> +7.4901813e+01 </wgt>
<wgt id='1520'> +7.4790418e+01 </wgt>
<wgt id='1521'> +7.4761992e+01 </wgt>
<wgt id='1522'> +7.4861567e+01 </wgt>
<wgt id='1523'> +7.4969910e+01 </wgt>
<wgt id='1524'> +7.4949246e+01 </wgt>
<wgt id='1525'> +7.4886660e+01 </wgt>
<wgt id='1526'> +7.4752669e+01 </wgt>
<wgt id='1527'> +7.4672360e+01 </wgt>
<wgt id='1528'> +7.4846015e+01 </wgt>
<wgt id='1529'> +7.4930653e+01 </wgt>
<wgt id='1530'> +7.4828904e+01 </wgt>
<wgt id='1531'> +7.4838322e+01 </wgt>
<wgt id='1532'> +7.4991404e+01 </wgt>
<wgt id='1533'> +7.4922903e+01 </wgt>
<wgt id='1534'> +7.4847812e+01 </wgt>
<wgt id='1535'> +7.4858446e+01 </wgt>
<wgt id='1536'> +7.4777018e+01 </wgt>
<wgt id='1537'> +7.4796748e+01 </wgt>
<wgt id='1538'> +7.4846463e+01 </wgt>
<wgt id='1539'> +7.4814597e+01 </wgt>
<wgt id='1540'> +7.4847111e+01 </wgt>
<wgt id='1541'> +7.4880417e+01 </wgt>
<wgt id='1542'> +7.4812016e+01 </wgt>
<wgt id='1543'> +7.4867708e+01 </wgt>
<wgt id='1544'> +7.4869971e+01 </wgt>
<wgt id='1545'> +7.4871933e+01 </wgt>
<wgt id='1546'> +7.4844892e+01 </wgt>
<wgt id='1547'> +7.4893461e+01 </wgt>
<wgt id='1548'> +7.4827184e+01 </wgt>
<wgt id='1549'> +7.4880782e+01 </wgt>
<wgt id='1550'> +7.4875184e+01 </wgt>
<wgt id='1551'> +7.4874883e+01 </wgt>
<wgt id='1552'> +7.4872713e+01 </wgt>
<wgt id='1553'> +7.4825551e+01 </wgt>
<wgt id='1554'> +7.4864159e+01 </wgt>
<wgt id='1555'> +7.4833176e+01 </wgt>
<wgt id='1556'> +7.4887296e+01 </wgt>
<wgt id='1557'> +7.4840242e+01 </wgt>
<wgt id='1558'> +7.4837754e+01 </wgt>
<wgt id='1559'> +7.4863772e+01 </wgt>
<wgt id='1560'> +7.4851138e+01 </wgt>
<wgt id='1561'> +7.4831788e+01 </wgt>
<wgt id='1562'> +7.4844495e+01 </wgt>
<wgt id='1563'> +7.4871546e+01 </wgt>
<wgt id='1564'> +7.4864066e+01 </wgt>
<wgt id='1565'> +7.4859175e+01 </wgt>
<wgt id='1566'> +7.4863177e+01 </wgt>
<wgt id='1567'> +7.4172108e+01 </wgt>
<wgt id='1568'> +7.5216401e+01 </wgt>
<wgt id='1569'> +7.4116744e+01 </wgt>
<wgt id='1570'> +7.3959665e+01 </wgt>
<wgt id='1571'> +7.4318693e+01 </wgt>
<wgt id='1572'> +7.3776448e+01 </wgt>
<wgt id='1573'> +7.4373581e+01 </wgt>
<wgt id='1574'> +7.4594509e+01 </wgt>
<wgt id='1575'> +7.4142666e+01 </wgt>
<wgt id='1576'> +7.4277445e+01 </wgt>
<wgt id='1577'> +7.4161860e+01 </wgt>
<wgt id='1578'> +7.4120966e+01 </wgt>
<wgt id='1579'> +7.3617419e+01 </wgt>
<wgt id='1580'> +7.5295550e+01 </wgt>
<wgt id='1581'> +7.3929288e+01 </wgt>
<wgt id='1582'> +7.3520685e+01 </wgt>
<wgt id='1583'> +7.3743428e+01 </wgt>
<wgt id='1584'> +7.4401172e+01 </wgt>
<wgt id='1585'> +7.4470685e+01 </wgt>
<wgt id='1586'> +7.3937460e+01 </wgt>
<wgt id='1587'> +7.4652158e+01 </wgt>
<wgt id='1588'> +7.3460402e+01 </wgt>
<wgt id='1589'> +7.4219187e+01 </wgt>
<wgt id='1590'> +7.4173893e+01 </wgt>
<wgt id='1591'> +7.3383155e+01 </wgt>
<wgt id='1592'> +7.4302318e+01 </wgt>
<wgt id='1593'> +7.4527948e+01 </wgt>
<wgt id='1594'> +7.3995042e+01 </wgt>
<wgt id='1595'> +7.3803468e+01 </wgt>
<wgt id='1596'> +7.4242263e+01 </wgt>
<wgt id='1597'> +7.4091632e+01 </wgt>
<wgt id='1598'> +7.3739136e+01 </wgt>
<wgt id='1599'> +7.3868997e+01 </wgt>
<wgt id='1600'> +7.4051755e+01 </wgt>
<wgt id='1601'> +7.3845980e+01 </wgt>
<wgt id='1602'> +7.3455593e+01 </wgt>
<wgt id='1603'> +7.3583115e+01 </wgt>
<wgt id='1604'> +7.4543628e+01 </wgt>
<wgt id='1605'> +7.3988180e+01 </wgt>
<wgt id='1606'> +7.4153666e+01 </wgt>
<wgt id='1607'> +7.3720743e+01 </wgt>
<wgt id='1608'> +7.3971134e+01 </wgt>
<wgt id='1609'> +7.3525944e+01 </wgt>
<wgt id='1610'> +7.4061676e+01 </wgt>
<wgt id='1611'> +7.4166296e+01 </wgt>
<wgt id='1612'> +7.4052872e+01 </wgt>
<wgt id='1613'> +7.4248545e+01 </wgt>
<wgt id='1614'> +7.3852766e+01 </wgt>
<wgt id='1615'> +7.3889361e+01 </wgt>
<wgt id='1616'> +7.4202582e+01 </wgt>
<wgt id='1617'> +7.4341778e+01 </wgt>
<wgt id='1618'> +7.4080253e+01 </wgt>
<wgt id='1619'> +7.4406060e+01 </wgt>
<wgt id='1620'> +7.4177639e+01 </wgt>
<wgt id='1621'> +7.4077173e+01 </wgt>
<wgt id='1622'> +7.4248291e+01 </wgt>
<wgt id='1623'> +7.3973877e+01 </wgt>
<wgt id='1624'> +7.4212917e+01 </wgt>
<wgt id='1625'> +7.4093524e+01 </wgt>
<wgt id='1626'> +7.4074263e+01 </wgt>
<wgt id='1627'> +7.4036256e+01 </wgt>
<wgt id='1628'> +7.4087654e+01 </wgt>
<wgt id='1629'> +7.4077655e+01 </wgt>
<wgt id='1630'> +7.4147152e+01 </wgt>
<wgt id='1631'> +7.4070964e+01 </wgt>
<wgt id='1632'> +7.4195245e+01 </wgt>
<wgt id='1633'> +7.4181790e+01 </wgt>
<wgt id='1634'> +7.3954632e+01 </wgt>
<wgt id='1635'> +7.4138697e+01 </wgt>
<wgt id='1636'> +7.4101029e+01 </wgt>
<wgt id='1637'> +7.4196317e+01 </wgt>
<wgt id='1638'> +7.4178103e+01 </wgt>
<wgt id='1639'> +7.4080901e+01 </wgt>
<wgt id='1640'> +7.4214385e+01 </wgt>
<wgt id='1641'> +7.4162173e+01 </wgt>
<wgt id='1642'> +7.4103448e+01 </wgt>
<wgt id='1643'> +7.4131434e+01 </wgt>
<wgt id='1644'> +7.4128534e+01 </wgt>
<wgt id='1645'> +7.4093438e+01 </wgt>
<wgt id='1646'> +7.4130833e+01 </wgt>
<wgt id='1647'> +7.4085812e+01 </wgt>
<wgt id='1648'> +7.4132734e+01 </wgt>
<wgt id='1649'> +7.4157492e+01 </wgt>
<wgt id='1650'> +7.4126925e+01 </wgt>
<wgt id='1651'> +7.4122099e+01 </wgt>
<wgt id='1652'> +7.4134132e+01 </wgt>
<wgt id='1653'> +7.4107966e+01 </wgt>
<wgt id='1654'> +7.4090937e+01 </wgt>
<wgt id='1655'> +7.4098330e+01 </wgt>
<wgt id='1656'> +7.4076789e+01 </wgt>
<wgt id='1657'> +7.4087481e+01 </wgt>
<wgt id='1658'> +7.4101453e+01 </wgt>
<wgt id='1659'> +7.4140573e+01 </wgt>
<wgt id='1660'> +7.4074981e+01 </wgt>
<wgt id='1661'> +7.4094093e+01 </wgt>
<wgt id='1662'> +7.4095394e+01 </wgt>
<wgt id='1663'> +7.4130811e+01 </wgt>
<wgt id='1664'> +7.4127399e+01 </wgt>
<wgt id='1665'> +7.4141651e+01 </wgt>
<wgt id='1666'> +7.4126841e+01 </wgt>
<wgt id='1667'> +7.4089130e+01 </wgt>
<wgt id='1668'> +7.4086170e+01 </wgt>
<wgt id='1669'> +7.4124814e+01 </wgt>
<wgt id='1670'> +7.3666131e+01 </wgt>
<wgt id='1671'> +7.4405057e+01 </wgt>
<wgt id='1672'> +7.4855827e+01 </wgt>
<wgt id='1673'> +7.5513356e+01 </wgt>
<wgt id='1674'> +7.3525065e+01 </wgt>
<wgt id='1675'> +7.4750507e+01 </wgt>
<wgt id='1676'> +7.4966021e+01 </wgt>
<wgt id='1677'> +7.5854502e+01 </wgt>
<wgt id='1678'> +7.5142976e+01 </wgt>
<wgt id='1679'> +7.4945625e+01 </wgt>
<wgt id='1680'> +7.5017964e+01 </wgt>
<wgt id='1681'> +7.4912712e+01 </wgt>
<wgt id='1682'> +7.4983601e+01 </wgt>
<wgt id='1683'> +7.4549219e+01 </wgt>
<wgt id='1684'> +7.4767719e+01 </wgt>
<wgt id='1685'> +7.4794597e+01 </wgt>
<wgt id='1686'> +7.4440640e+01 </wgt>
<wgt id='1687'> +7.4805532e+01 </wgt>
<wgt id='1688'> +7.4894075e+01 </wgt>
<wgt id='1689'> +7.4494930e+01 </wgt>
<wgt id='1690'> +7.4837473e+01 </wgt>
<wgt id='1691'> +7.5008738e+01 </wgt>
<wgt id='1692'> +7.6420393e+01 </wgt>
<wgt id='1693'> +7.4836161e+01 </wgt>
<wgt id='1694'> +7.4860424e+01 </wgt>
<wgt id='1695'> +7.4896981e+01 </wgt>
<wgt id='1696'> +7.4896237e+01 </wgt>
<wgt id='1697'> +7.4803676e+01 </wgt>
<wgt id='1698'> +7.4919668e+01 </wgt>
<wgt id='1699'> +7.4836565e+01 </wgt>
<wgt id='1700'> +7.5110421e+01 </wgt>
<wgt id='1701'> +7.4855497e+01 </wgt>
<wgt id='1702'> +7.4830906e+01 </wgt>
<wgt id='1703'> +7.4172108e+01 </wgt>
<wgt id='1704'> +7.5216401e+01 </wgt>
<wgt id='1705'> +7.4117811e+01 </wgt>
<wgt id='1706'> +7.3938147e+01 </wgt>
<wgt id='1707'> +7.4949822e+01 </wgt>
<wgt id='1708'> +7.3975231e+01 </wgt>
<wgt id='1709'> +7.4038375e+01 </wgt>
<wgt id='1710'> +7.3146266e+01 </wgt>
<wgt id='1711'> +7.4046610e+01 </wgt>
<wgt id='1712'> +7.3938961e+01 </wgt>
<wgt id='1713'> +7.3976847e+01 </wgt>
<wgt id='1714'> +7.3256067e+01 </wgt>
<wgt id='1715'> +7.4039970e+01 </wgt>
<wgt id='1716'> +7.5860478e+01 </wgt>
<wgt id='1717'> +7.4175383e+01 </wgt>
<wgt id='1718'> +7.4309394e+01 </wgt>
<wgt id='1719'> +7.3978293e+01 </wgt>
<wgt id='1720'> +7.4120270e+01 </wgt>
<wgt id='1721'> +7.4088627e+01 </wgt>
<wgt id='1722'> +7.4551417e+01 </wgt>
<wgt id='1723'> +7.4111854e+01 </wgt>
<wgt id='1724'> +7.4082770e+01 </wgt>
<wgt id='1725'> +7.4230444e+01 </wgt>
<wgt id='1726'> +7.4243258e+01 </wgt>
<wgt id='1727'> +7.5127544e+01 </wgt>
<wgt id='1728'> +7.4132997e+01 </wgt>
<wgt id='1729'> +7.4082430e+01 </wgt>
<wgt id='1730'> +7.4116386e+01 </wgt>
<wgt id='1731'> +7.4049654e+01 </wgt>
<wgt id='1732'> +7.4113115e+01 </wgt>
<wgt id='1733'> +7.4063006e+01 </wgt>
<wgt id='1734'> +7.4125088e+01 </wgt>
<wgt id='1735'> +7.4123724e+01 </wgt>
<wgt id='1736'> +7.3666131e+01 </wgt>
<wgt id='1737'> +7.4405057e+01 </wgt>
<wgt id='1738'> +6.8331746e+01 </wgt>
<wgt id='1739'> +6.8386435e+01 </wgt>
<wgt id='1740'> +6.8277185e+01 </wgt>
<wgt id='1741'> +6.8280086e+01 </wgt>
<wgt id='1742'> +6.8383059e+01 </wgt>
<wgt id='1743'> +6.8486390e+01 </wgt>
<wgt id='1744'> +6.8177483e+01 </wgt>
<wgt id='1745'> +6.8296002e+01 </wgt>
<wgt id='1746'> +6.8364503e+01 </wgt>
<wgt id='1747'> +6.8567685e+01 </wgt>
<wgt id='1748'> +6.8096346e+01 </wgt>
<wgt id='1749'> +6.8349307e+01 </wgt>
<wgt id='1750'> +6.8341505e+01 </wgt>
<wgt id='1751'> +6.8220946e+01 </wgt>
<wgt id='1752'> +6.8443914e+01 </wgt>
<wgt id='1753'> +6.8187343e+01 </wgt>
<wgt id='1754'> +6.8352914e+01 </wgt>
<wgt id='1755'> +6.8295746e+01 </wgt>
<wgt id='1756'> +6.8412981e+01 </wgt>
<wgt id='1757'> +6.8163046e+01 </wgt>
<wgt id='1758'> +6.8464653e+01 </wgt>
<wgt id='1759'> +6.8015865e+01 </wgt>
<wgt id='1760'> +6.8603736e+01 </wgt>
<wgt id='1761'> +6.8662877e+01 </wgt>
<wgt id='1762'> +6.7774054e+01 </wgt>
<wgt id='1763'> +6.8545152e+01 </wgt>
<wgt id='1764'> +6.8187015e+01 </wgt>
<wgt id='1765'> +6.8630120e+01 </wgt>
<wgt id='1766'> +6.8074400e+01 </wgt>
<wgt id='1767'> +6.8331746e+01 </wgt>
<wgt id='1768'> +7.0793340e+01 </wgt>
<wgt id='1769'> +6.5480350e+01 </wgt>
<wgt id='1770'> +7.4055590e+01 </wgt>
<wgt id='1771'> +7.1519392e+01 </wgt>
<wgt id='1772'> +6.8518342e+01 </wgt>
<wgt id='1773'> +6.8348701e+01 </wgt>
<wgt id='1774'> +6.8258758e+01 </wgt>
<wgt id='1775'> +6.8382990e+01 </wgt>
<wgt id='1776'> +6.7946792e+01 </wgt>
<wgt id='1777'> +6.8662726e+01 </wgt>
<wgt id='1778'> +6.7753643e+01 </wgt>
<wgt id='1779'> +6.9026755e+01 </wgt>
<wgt id='1780'> +6.5972225e+01 </wgt>
<wgt id='1781'> +6.6996030e+01 </wgt>
<wgt id='1782'> +6.7053543e+01 </wgt>
<wgt id='1783'> +6.6927617e+01 </wgt>
<wgt id='1784'> +6.6874648e+01 </wgt>
<wgt id='1785'> +6.7106481e+01 </wgt>
<wgt id='1786'> +6.7088416e+01 </wgt>
<wgt id='1787'> +6.6892696e+01 </wgt>
<wgt id='1788'> +6.6893290e+01 </wgt>
<wgt id='1789'> +6.7083472e+01 </wgt>
<wgt id='1790'> +6.7110734e+01 </wgt>
<wgt id='1791'> +6.6872809e+01 </wgt>
<wgt id='1792'> +6.7128353e+01 </wgt>
<wgt id='1793'> +6.6853604e+01 </wgt>
<wgt id='1794'> +6.6853941e+01 </wgt>
<wgt id='1795'> +6.7123071e+01 </wgt>
<wgt id='1796'> +6.6848722e+01 </wgt>
<wgt id='1797'> +6.7004597e+01 </wgt>
<wgt id='1798'> +6.7107370e+01 </wgt>
<wgt id='1799'> +6.6866544e+01 </wgt>
<wgt id='1800'> +6.6767764e+01 </wgt>
<wgt id='1801'> +6.7214991e+01 </wgt>
<wgt id='1802'> +6.7006024e+01 </wgt>
<wgt id='1803'> +6.6912145e+01 </wgt>
<wgt id='1804'> +6.7796306e+01 </wgt>
<wgt id='1805'> +6.6212109e+01 </wgt>
<wgt id='1806'> +6.8042397e+01 </wgt>
<wgt id='1807'> +6.5915972e+01 </wgt>
<wgt id='1808'> +6.7898216e+01 </wgt>
<wgt id='1809'> +6.6190351e+01 </wgt>
<wgt id='1810'> +6.6998849e+01 </wgt>
<wgt id='1811'> +6.9869456e+01 </wgt>
<wgt id='1812'> +6.3894974e+01 </wgt>
<wgt id='1813'> +7.2950727e+01 </wgt>
<wgt id='1814'> +6.9412286e+01 </wgt>
<wgt id='1815'> +6.9011158e+01 </wgt>
<wgt id='1816'> +6.6437585e+01 </wgt>
<wgt id='1817'> +6.6867792e+01 </wgt>
<wgt id='1818'> +6.6853849e+01 </wgt>
<wgt id='1819'> +6.6938150e+01 </wgt>
<wgt id='1820'> +6.9195271e+01 </wgt>
<wgt id='1821'> +6.7377274e+01 </wgt>
<wgt id='1822'> +6.6491137e+01 </wgt>
<wgt id='1823'> +6.6126625e+01 </wgt>
<wgt id='1824'> +7.3755333e+01 </wgt>
<wgt id='1825'> +7.3725062e+01 </wgt>
<wgt id='1826'> +7.3695309e+01 </wgt>
<wgt id='1827'> +7.3665451e+01 </wgt>
<wgt id='1828'> +7.3635356e+01 </wgt>
<wgt id='1829'> +7.3605433e+01 </wgt>
<wgt id='1830'> +7.3575392e+01 </wgt>
<wgt id='1831'> +7.3545670e+01 </wgt>
<wgt id='1832'> +7.3515809e+01 </wgt>
<wgt id='1833'> +7.3485739e+01 </wgt>
<wgt id='1834'> +7.3455828e+01 </wgt>
<wgt id='1835'> +7.3425780e+01 </wgt>
<wgt id='1836'> +7.3395920e+01 </wgt>
<wgt id='1837'> +7.3366226e+01 </wgt>
<wgt id='1838'> +7.3336186e+01 </wgt>
<wgt id='1839'> +7.3306298e+01 </wgt>
<wgt id='1840'> +7.3276351e+01 </wgt>
<wgt id='1841'> +7.3246459e+01 </wgt>
<wgt id='1842'> +7.3216829e+01 </wgt>
<wgt id='1843'> +7.3186815e+01 </wgt>
<wgt id='1844'> +7.3157090e+01 </wgt>
<wgt id='1845'> +7.3127478e+01 </wgt>
<wgt id='1846'> +7.3097224e+01 </wgt>
<wgt id='1847'> +7.3067596e+01 </wgt>
<wgt id='1848'> +7.3037426e+01 </wgt>
<wgt id='1849'> +7.3007758e+01 </wgt>
<wgt id='1850'> +7.2977932e+01 </wgt>
<wgt id='1851'> +7.2947952e+01 </wgt>
<wgt id='1852'> +7.2918173e+01 </wgt>
<wgt id='1853'> +7.2888175e+01 </wgt>
<wgt id='1854'> +7.2858484e+01 </wgt>
<wgt id='1855'> +7.3512368e+01 </wgt>
<wgt id='1856'> +7.3345723e+01 </wgt>
<wgt id='1857'> +7.3708625e+01 </wgt>
<wgt id='1858'> +7.3177142e+01 </wgt>
<wgt id='1859'> +7.3766245e+01 </wgt>
<wgt id='1860'> +7.3986265e+01 </wgt>
<wgt id='1861'> +7.3547568e+01 </wgt>
<wgt id='1862'> +7.3681187e+01 </wgt>
<wgt id='1863'> +7.3557393e+01 </wgt>
<wgt id='1864'> +7.3517023e+01 </wgt>
<wgt id='1865'> +7.3014846e+01 </wgt>
<wgt id='1866'> +7.4693216e+01 </wgt>
<wgt id='1867'> +7.3331238e+01 </wgt>
<wgt id='1868'> +7.2926686e+01 </wgt>
<wgt id='1869'> +7.3140692e+01 </wgt>
<wgt id='1870'> +7.3777422e+01 </wgt>
<wgt id='1871'> +7.3874395e+01 </wgt>
<wgt id='1872'> +7.3329720e+01 </wgt>
<wgt id='1873'> +7.4042658e+01 </wgt>
<wgt id='1874'> +7.2868138e+01 </wgt>
<wgt id='1875'> +7.3622711e+01 </wgt>
<wgt id='1876'> +7.3562731e+01 </wgt>
<wgt id='1877'> +7.2782396e+01 </wgt>
<wgt id='1878'> +7.3698319e+01 </wgt>
<wgt id='1879'> +7.3915772e+01 </wgt>
<wgt id='1880'> +7.3384968e+01 </wgt>
<wgt id='1881'> +7.3192593e+01 </wgt>
<wgt id='1882'> +7.3645631e+01 </wgt>
<wgt id='1883'> +7.3491382e+01 </wgt>
<wgt id='1884'> +7.3132975e+01 </wgt>
<wgt id='1885'> +7.3262152e+01 </wgt>
<wgt id='1886'> +7.3457731e+01 </wgt>
<wgt id='1887'> +7.3239556e+01 </wgt>
<wgt id='1888'> +7.2852253e+01 </wgt>
<wgt id='1889'> +7.2981985e+01 </wgt>
<wgt id='1890'> +7.3934758e+01 </wgt>
<wgt id='1891'> +7.3384477e+01 </wgt>
<wgt id='1892'> +7.3549258e+01 </wgt>
<wgt id='1893'> +7.3117671e+01 </wgt>
<wgt id='1894'> +7.3364160e+01 </wgt>
<wgt id='1895'> +7.2925005e+01 </wgt>
<wgt id='1896'> +7.3455862e+01 </wgt>
<wgt id='1897'> +7.3561716e+01 </wgt>
<wgt id='1898'> +7.3453328e+01 </wgt>
<wgt id='1899'> +7.3642052e+01 </wgt>
<wgt id='1900'> +7.3248761e+01 </wgt>
<wgt id='1901'> +7.3288074e+01 </wgt>
<wgt id='1902'> +7.3597141e+01 </wgt>
<wgt id='1903'> +7.3737056e+01 </wgt>
<wgt id='1904'> +7.3474669e+01 </wgt>
<wgt id='1905'> +7.3799841e+01 </wgt>
<wgt id='1906'> +7.3572136e+01 </wgt>
<wgt id='1907'> +7.3473238e+01 </wgt>
<wgt id='1908'> +7.3643022e+01 </wgt>
<wgt id='1909'> +7.3371247e+01 </wgt>
<wgt id='1910'> +7.3608822e+01 </wgt>
<wgt id='1911'> +7.3486679e+01 </wgt>
<wgt id='1912'> +7.3470643e+01 </wgt>
<wgt id='1913'> +7.3435692e+01 </wgt>
<wgt id='1914'> +7.3484665e+01 </wgt>
<wgt id='1915'> +7.3475371e+01 </wgt>
<wgt id='1916'> +7.3543272e+01 </wgt>
<wgt id='1917'> +7.3465876e+01 </wgt>
<wgt id='1918'> +7.3588487e+01 </wgt>
<wgt id='1919'> +7.3577459e+01 </wgt>
<wgt id='1920'> +7.3350821e+01 </wgt>
<wgt id='1921'> +7.3533566e+01 </wgt>
<wgt id='1922'> +7.3495213e+01 </wgt>
<wgt id='1923'> +7.3591077e+01 </wgt>
<wgt id='1924'> +7.3572584e+01 </wgt>
<wgt id='1925'> +7.3476844e+01 </wgt>
<wgt id='1926'> +7.3610590e+01 </wgt>
<wgt id='1927'> +7.3556965e+01 </wgt>
<wgt id='1928'> +7.3498221e+01 </wgt>
<wgt id='1929'> +7.3526177e+01 </wgt>
<wgt id='1930'> +7.3524209e+01 </wgt>
<wgt id='1931'> +7.3490715e+01 </wgt>
<wgt id='1932'> +7.3525803e+01 </wgt>
<wgt id='1933'> +7.3483474e+01 </wgt>
<wgt id='1934'> +7.3528399e+01 </wgt>
<wgt id='1935'> +7.3551158e+01 </wgt>
<wgt id='1936'> +7.3524085e+01 </wgt>
<wgt id='1937'> +7.3517426e+01 </wgt>
<wgt id='1938'> +7.3528422e+01 </wgt>
<wgt id='1939'> +7.3503098e+01 </wgt>
<wgt id='1940'> +7.3487731e+01 </wgt>
<wgt id='1941'> +7.3495872e+01 </wgt>
<wgt id='1942'> +7.3471984e+01 </wgt>
<wgt id='1943'> +7.3482963e+01 </wgt>
<wgt id='1944'> +7.3496436e+01 </wgt>
<wgt id='1945'> +7.3536006e+01 </wgt>
<wgt id='1946'> +7.3470042e+01 </wgt>
<wgt id='1947'> +7.3489040e+01 </wgt>
<wgt id='1948'> +7.3491375e+01 </wgt>
<wgt id='1949'> +7.3524523e+01 </wgt>
<wgt id='1950'> +7.3523145e+01 </wgt>
<wgt id='1951'> +7.3537746e+01 </wgt>
<wgt id='1952'> +7.3522327e+01 </wgt>
<wgt id='1953'> +7.3484048e+01 </wgt>
<wgt id='1954'> +7.3482771e+01 </wgt>
<wgt id='1955'> +7.3521360e+01 </wgt>
<wgt id='1956'> +7.3511826e+01 </wgt>
<wgt id='1957'> +7.3515327e+01 </wgt>
<wgt id='1958'> +7.3512938e+01 </wgt>
<wgt id='1959'> +7.3513032e+01 </wgt>
<wgt id='1960'> +7.3514032e+01 </wgt>
<wgt id='1961'> +7.3512609e+01 </wgt>
<wgt id='1962'> +7.3515953e+01 </wgt>
</rwgt>
</event>
<event npLO=" -1 " npNLO=" 1 ">
 7      1 +1.5146096e+02 1.06923940e+01 7.54677110e-03 1.74569330e-01
       -3 -1    0    0    0  501 +0.0000000000e+00 +0.0000000000e+00 +2.9321612000e+02 2.9321612000e+02 0.0000000000e+00 0.0000e+00 9.0000e+00
       21 -1    0    0  501  502 +0.0000000000e+00 +0.0000000000e+00 -5.6873319000e+01 5.6873319000e+01 0.0000000000e+00 0.0000e+00 9.0000e+00
       23  2    1    2    0    0 +2.9903801000e+01 -7.0130367000e+00 +1.5152700000e+02 1.7956725000e+02 9.1326594000e+01 0.0000e+00 0.0000e+00
       11  1    3    3    0    0 +1.2880448000e+01 +3.0091728000e+01 +1.3117864000e+01 3.5263245000e+01 0.0000000000e+00 0.0000e+00 9.0000e+00
      -11  1    3    3    0    0 +1.7023353000e+01 -3.7104765000e+01 +1.3840913000e+02 1.4430401000e+02 0.0000000000e+00 0.0000e+00 9.0000e+00
       22  1    1    2    0    0 -2.2136594000e+01 -3.3528234000e-01 +1.2602172000e+02 1.2795161000e+02 0.0000000000e+00 0.0000e+00 9.0000e+00
       -3  1    1    2    0  502 -7.7672065000e+00 +7.3483191000e+00 -4.1205911000e+01 4.2570581000e+01 0.0000000000e+00 0.0000e+00 9.0000e+00
#aMCatNLO 1  0  0  6  2 0.51769616E+00 0.00000000E+00 -9  7  0 0.00000000E+00 0.00000000E+00 0.00000000E+00 0.00000000E+00 0.00000000E+00
<rwgt>
<wgt id='1001'> +1.5146000e+02 </wgt>
<wgt id='1002'> +1.5146000e+02 </wgt>
<wgt id='1003'> +1.3736000e+02 </wgt>
<wgt id='1004'> +1.5964000e+02 </wgt>
<wgt id='1005'> +1.5705000e+02 </wgt>
<wgt id='1006'> +1.4382000e+02 </wgt>
<wgt id='1007'> +1.3473000e+02 </wgt>
<wgt id='1008'> +1.6677000e+02 </wgt>
<wgt id='1009'> +1.5343000e+02 </wgt>
<wgt id='1010'> +1.4640000e+02 </wgt>
<wgt id='1011'> +1.5559000e+02 </wgt>
<wgt id='1012'> +1.4063000e+02 </wgt>
<wgt id='1013'> +1.4392000e+02 </wgt>
<wgt id='1014'> +1.4295000e+02 </wgt>
<wgt id='1015'> +1.6275000e+02 </wgt>
<wgt id='1016'> +1.4098000e+02 </wgt>
<wgt id='1017'> +1.6603000e+02 </wgt>
<wgt id='1018'> +1.4826000e+02 </wgt>
<wgt id='1019'> +1.4659000e+02 </wgt>
<wgt id='1020'> +1.7841000e+02 </wgt>
<wgt id='1021'> +1.3945000e+02 </wgt>
<wgt id='1022'> +1.4539000e+02 </wgt>
<wgt id='1023'> +1.5093000e+02 </wgt>
<wgt id='1024'> +1.4089000e+02 </wgt>
<wgt id='1025'> +1.5969000e+02 </wgt>
<wgt id='1026'> +1.3949000e+02 </wgt>
<wgt id='1027'> +1.5069000e+02 </wgt>
<wgt id='1028'> +1.4585000e+02 </wgt>
<wgt id='1029'> +1.5604000e+02 </wgt>
<wgt id='1030'> +1.3831000e+02 </wgt>
<wgt id='1031'> +1.5650000e+02 </wgt>
<wgt id='1032'> +1.5596000e+02 </wgt>
<wgt id='1033'> +1.6306000e+02 </wgt>
<wgt id='1034'> +1.4747000e+02 </wgt>
<wgt id='1035'> +1.4632000e+02 </wgt>
<wgt id='1036'> +1.5178000e+02 </wgt>
<wgt id='1037'> +1.6743000e+02 </wgt>
<wgt id='1038'> +1.5459000e+02 </wgt>
<wgt id='1039'> +1.5940000e+02 </wgt>
<wgt id='1040'> +1.4363000e+02 </wgt>
<wgt id='1041'> +1.3414000e+02 </wgt>
<wgt id='1042'> +1.4893000e+02 </wgt>
<wgt id='1043'> +1.5020000e+02 </wgt>
<wgt id='1044'> +1.5918000e+02 </wgt>
<wgt id='1045'> +1.5443000e+02 </wgt>
<wgt id='1046'> +1.6028000e+02 </wgt>
<wgt id='1047'> +1.5895000e+02 </wgt>
<wgt id='1048'> +1.6291000e+02 </wgt>
<wgt id='1049'> +1.5472000e+02 </wgt>
<wgt id='1050'> +1.4751000e+02 </wgt>
<wgt id='1051'> +1.5517000e+02 </wgt>
<wgt id='1052'> +1.5976000e+02 </wgt>
<wgt id='1053'> +1.3681000e+02 </wgt>
<wgt id='1054'> +1.5285000e+02 </wgt>
<wgt id='1055'> +1.4166000e+02 </wgt>
<wgt id='1056'> +1.6306000e+02 </wgt>
<wgt id='1057'> +1.5026000e+02 </wgt>
<wgt id='1058'> +1.4698000e+02 </wgt>
<wgt id='1059'> +1.6672000e+02 </wgt>
<wgt id='1060'> +1.4829000e+02 </wgt>
<wgt id='1061'> +1.4589000e+02 </wgt>
<wgt id='1062'> +1.4816000e+02 </wgt>
<wgt id='1063'> +1.6028000e+02 </wgt>
<wgt id='1064'> +1.5372000e+02 </wgt>
<wgt id='1065'> +1.5133000e+02 </wgt>
<wgt id='1066'> +1.6820000e+02 </wgt>
<wgt id='1067'> +1.5187000e+02 </wgt>
<wgt id='1068'> +1.6553000e+02 </wgt>
<wgt id='1069'> +1.5410000e+02 </wgt>
<wgt id='1070'> +1.4903000e+02 </wgt>
<wgt id='1071'> +1.3526000e+02 </wgt>
<wgt id='1072'> +1.3999000e+02 </wgt>
<wgt id='1073'> +1.5802000e+02 </wgt>
<wgt id='1074'> +1.3912000e+02 </wgt>
<wgt id='1075'> +1.2343000e+02 </wgt>
<wgt id='1076'> +1.5719000e+02 </wgt>
<wgt id='1077'> +1.4598000e+02 </wgt>
<wgt id='1078'> +1.3424000e+02 </wgt>
<wgt id='1079'> +1.5388000e+02 </wgt>
<wgt id='1080'> +1.5731000e+02 </wgt>
<wgt id='1081'> +1.4700000e+02 </wgt>
<wgt id='1082'> +1.5405000e+02 </wgt>
<wgt id='1083'> +1.5058000e+02 </wgt>
<wgt id='1084'> +1.4306000e+02 </wgt>
<wgt id='1085'> +1.5466000e+02 </wgt>
<wgt id='1086'> +1.4121000e+02 </wgt>
<wgt id='1087'> +1.5241000e+02 </wgt>
<wgt id='1088'> +1.5967000e+02 </wgt>
<wgt id='1089'> +1.5156000e+02 </wgt>
<wgt id='1090'> +1.4679000e+02 </wgt>
<wgt id='1091'> +1.5103000e+02 </wgt>
<wgt id='1092'> +1.4468000e+02 </wgt>
<wgt id='1093'> +1.4854000e+02 </wgt>
<wgt id='1094'> +1.5548000e+02 </wgt>
<wgt id='1095'> +1.5516000e+02 </wgt>
<wgt id='1096'> +1.5194000e+02 </wgt>
<wgt id='1097'> +1.6691000e+02 </wgt>
<wgt id='1098'> +1.5415000e+02 </wgt>
<wgt id='1099'> +1.2379000e+02 </wgt>
<wgt id='1100'> +1.7312000e+02 </wgt>
<wgt id='1101'> +1.6469000e+02 </wgt>
<wgt id='1102'> +1.7517000e+02 </wgt>
<wgt id='1103'> +1.4854000e+02 </wgt>
<wgt id='1104'> +1.5651000e+02 </wgt>
<wgt id='1105'> +1.5146096e+02 </wgt>
<wgt id='1106'> +5.7239041e+01 </wgt>
<wgt id='1107'> +1.0513580e+02 </wgt>
<wgt id='1108'> +8.6134314e+01 </wgt>
<wgt id='1109'> +6.5105516e+01 </wgt>
<wgt id='1110'> +1.1957173e+02 </wgt>
<wgt id='1111'> +6.2102402e+01 </wgt>
<wgt id='1112'> +4.6934893e+01 </wgt>
<wgt id='1113'> +8.6225465e+01 </wgt>
<wgt id='1114'> +9.0379229e+01 </wgt>
<wgt id='1115'> +7.0288088e+01 </wgt>
<wgt id='1116'> +8.8577813e+01 </wgt>
<wgt id='1117'> +9.0110079e+01 </wgt>
<wgt id='1118'> +8.6572869e+01 </wgt>
<wgt id='1119'> +9.8936989e+01 </wgt>
<wgt id='1120'> +8.9172297e+01 </wgt>
<wgt id='1121'> +7.7962087e+01 </wgt>
<wgt id='1122'> +9.7259960e+01 </wgt>
<wgt id='1123'> +9.6397321e+01 </wgt>
<wgt id='1124'> +9.1591183e+01 </wgt>
<wgt id='1125'> +8.6726778e+01 </wgt>
<wgt id='1126'> +9.2115288e+01 </wgt>
<wgt id='1127'> +9.0769102e+01 </wgt>
<wgt id='1128'> +8.9029809e+01 </wgt>
<wgt id='1129'> +9.3617264e+01 </wgt>
<wgt id='1130'> +8.6298551e+01 </wgt>
<wgt id='1131'> +8.4076112e+01 </wgt>
<wgt id='1132'> +8.3453127e+01 </wgt>
<wgt id='1133'> +9.1079352e+01 </wgt>
<wgt id='1134'> +1.0279762e+02 </wgt>
<wgt id='1135'> +9.3495522e+01 </wgt>
<wgt id='1136'> +9.0932857e+01 </wgt>
<wgt id='1137'> +8.8310406e+01 </wgt>
<wgt id='1138'> +8.8681318e+01 </wgt>
<wgt id='1139'> +9.0674718e+01 </wgt>
<wgt id='1140'> +9.1981088e+01 </wgt>
<wgt id='1141'> +8.9542864e+01 </wgt>
<wgt id='1142'> +9.0791681e+01 </wgt>
<wgt id='1143'> +8.6374960e+01 </wgt>
<wgt id='1144'> +8.8252391e+01 </wgt>
<wgt id='1145'> +8.5667253e+01 </wgt>
<wgt id='1146'> +9.2378965e+01 </wgt>
<wgt id='1147'> +7.4980705e+01 </wgt>
<wgt id='1148'> +9.3432089e+01 </wgt>
<wgt id='1149'> +8.9966419e+01 </wgt>
<wgt id='1150'> +8.6226866e+01 </wgt>
<wgt id='1151'> +8.7864910e+01 </wgt>
<wgt id='1152'> +8.9843607e+01 </wgt>
<wgt id='1153'> +9.0798579e+01 </wgt>
<wgt id='1154'> +8.7405180e+01 </wgt>
<wgt id='1155'> +9.1518463e+01 </wgt>
<wgt id='1156'> +8.7640922e+01 </wgt>
<wgt id='1157'> +8.7334958e+01 </wgt>
<wgt id='1158'> +8.4030211e+01 </wgt>
<wgt id='1159'> +9.6277546e+01 </wgt>
<wgt id='1160'> +8.6358216e+01 </wgt>
<wgt id='1161'> +8.8144928e+01 </wgt>
<wgt id='1162'> +8.9766715e+01 </wgt>
<wgt id='1163'> +9.5486372e+01 </wgt>
<wgt id='1164'> +9.0873005e+01 </wgt>
<wgt id='1165'> +9.3282262e+01 </wgt>
<wgt id='1166'> +9.4042210e+01 </wgt>
<wgt id='1167'> +9.0745962e+01 </wgt>
<wgt id='1168'> +8.3840607e+01 </wgt>
<wgt id='1169'> +8.6484341e+01 </wgt>
<wgt id='1170'> +9.2524492e+01 </wgt>
<wgt id='1171'> +8.9831497e+01 </wgt>
<wgt id='1172'> +9.1183910e+01 </wgt>
<wgt id='1173'> +8.9218886e+01 </wgt>
<wgt id='1174'> +9.6139237e+01 </wgt>
<wgt id='1175'> +8.5643749e+01 </wgt>
<wgt id='1176'> +9.5973672e+01 </wgt>
<wgt id='1177'> +8.6829820e+01 </wgt>
<wgt id='1178'> +8.2914411e+01 </wgt>
<wgt id='1179'> +8.1194487e+01 </wgt>
<wgt id='1180'> +9.6622862e+01 </wgt>
<wgt id='1181'> +8.5875991e+01 </wgt>
<wgt id='1182'> +9.9446110e+01 </wgt>
<wgt id='1183'> +8.8796674e+01 </wgt>
<wgt id='1184'> +9.3002293e+01 </wgt>
<wgt id='1185'> +9.5065146e+01 </wgt>
<wgt id='1186'> +9.1695194e+01 </wgt>
<wgt id='1187'> +1.0290539e+02 </wgt>
<wgt id='1188'> +9.1526021e+01 </wgt>
<wgt id='1189'> +1.0421579e+02 </wgt>
<wgt id='1190'> +8.7628895e+01 </wgt>
<wgt id='1191'> +8.1968721e+01 </wgt>
<wgt id='1192'> +8.7361814e+01 </wgt>
<wgt id='1193'> +9.7282373e+01 </wgt>
<wgt id='1194'> +7.7679128e+01 </wgt>
<wgt id='1195'> +8.8866727e+01 </wgt>
<wgt id='1196'> +8.6298551e+01 </wgt>
<wgt id='1197'> +9.8174496e+01 </wgt>
<wgt id='1198'> +9.4759448e+01 </wgt>
<wgt id='1199'> +8.6889028e+01 </wgt>
<wgt id='1200'> +8.3071240e+01 </wgt>
<wgt id='1201'> +1.0020519e+02 </wgt>
<wgt id='1202'> +8.7644429e+01 </wgt>
<wgt id='1203'> +1.2503290e+02 </wgt>
<wgt id='1204'> +9.1796542e+01 </wgt>
<wgt id='1205'> +9.1195755e+01 </wgt>
<wgt id='1206'> +1.0291975e+02 </wgt>
<wgt id='1207'> +1.0048219e+02 </wgt>
<wgt id='1208'> +8.6532147e+01 </wgt>
<wgt id='1209'> +8.2249190e+01 </wgt>
<wgt id='1210'> +9.3821843e+01 </wgt>
<wgt id='1211'> +9.1171119e+01 </wgt>
<wgt id='1212'> +8.5258364e+01 </wgt>
<wgt id='1213'> +9.1907312e+01 </wgt>
<wgt id='1214'> +8.8556022e+01 </wgt>
<wgt id='1215'> +7.8791128e+01 </wgt>
<wgt id='1216'> +8.5395008e+01 </wgt>
<wgt id='1217'> +8.5588351e+01 </wgt>
<wgt id='1218'> +8.5103157e+01 </wgt>
<wgt id='1219'> +8.5803748e+01 </wgt>
<wgt id='1220'> +8.5234245e+01 </wgt>
<wgt id='1221'> +8.5356767e+01 </wgt>
<wgt id='1222'> +8.5705331e+01 </wgt>
<wgt id='1223'> +8.5414938e+01 </wgt>
<wgt id='1224'> +8.5138536e+01 </wgt>
<wgt id='1225'> +8.4910018e+01 </wgt>
<wgt id='1226'> +8.5582422e+01 </wgt>
<wgt id='1227'> +8.5668884e+01 </wgt>
<wgt id='1228'> +8.5676377e+01 </wgt>
<wgt id='1229'> +8.4699256e+01 </wgt>
<wgt id='1230'> +8.5356293e+01 </wgt>
<wgt id='1231'> +8.5988186e+01 </wgt>
<wgt id='1232'> +8.4996944e+01 </wgt>
<wgt id='1233'> +8.5610753e+01 </wgt>
<wgt id='1234'> +8.5022310e+01 </wgt>
<wgt id='1235'> +8.5418043e+01 </wgt>
<wgt id='1236'> +8.5895523e+01 </wgt>
<wgt id='1237'> +8.4626092e+01 </wgt>
<wgt id='1238'> +8.5377053e+01 </wgt>
<wgt id='1239'> +8.5331550e+01 </wgt>
<wgt id='1240'> +8.5218008e+01 </wgt>
<wgt id='1241'> +8.6119920e+01 </wgt>
<wgt id='1242'> +8.5657719e+01 </wgt>
<wgt id='1243'> +8.4845983e+01 </wgt>
<wgt id='1244'> +8.5655294e+01 </wgt>
<wgt id='1245'> +8.4734717e+01 </wgt>
<wgt id='1246'> +8.4668331e+01 </wgt>
<wgt id='1247'> +8.5214863e+01 </wgt>
<wgt id='1248'> +8.5824394e+01 </wgt>
<wgt id='1249'> +8.4402420e+01 </wgt>
<wgt id='1250'> +8.5659361e+01 </wgt>
<wgt id='1251'> +8.4994669e+01 </wgt>
<wgt id='1252'> +8.6529432e+01 </wgt>
<wgt id='1253'> +8.6147513e+01 </wgt>
<wgt id='1254'> +8.6558506e+01 </wgt>
<wgt id='1255'> +8.5282921e+01 </wgt>
<wgt id='1256'> +8.5825436e+01 </wgt>
<wgt id='1257'> +8.6321288e+01 </wgt>
<wgt id='1258'> +8.5991751e+01 </wgt>
<wgt id='1259'> +8.5204808e+01 </wgt>
<wgt id='1260'> +8.5796165e+01 </wgt>
<wgt id='1261'> +8.5213520e+01 </wgt>
<wgt id='1262'> +8.5919963e+01 </wgt>
<wgt id='1263'> +8.4784714e+01 </wgt>
<wgt id='1264'> +8.3518047e+01 </wgt>
<wgt id='1265'> +8.5850967e+01 </wgt>
<wgt id='1266'> +8.5870388e+01 </wgt>
<wgt id='1267'> +8.5179526e+01 </wgt>
<wgt id='1268'> +8.5704548e+01 </wgt>
<wgt id='1269'> +8.6296701e+01 </wgt>
<wgt id='1270'> +8.4226986e+01 </wgt>
<wgt id='1271'> +8.5279039e+01 </wgt>
<wgt id='1272'> +8.6449737e+01 </wgt>
<wgt id='1273'> +8.5134254e+01 </wgt>
<wgt id='1274'> +8.6132374e+01 </wgt>
<wgt id='1275'> +8.5167615e+01 </wgt>
<wgt id='1276'> +8.5133207e+01 </wgt>
<wgt id='1277'> +8.5559031e+01 </wgt>
<wgt id='1278'> +8.6304725e+01 </wgt>
<wgt id='1279'> +8.6329011e+01 </wgt>
<wgt id='1280'> +8.5884661e+01 </wgt>
<wgt id='1281'> +8.5352795e+01 </wgt>
<wgt id='1282'> +8.5784719e+01 </wgt>
<wgt id='1283'> +8.5317537e+01 </wgt>
<wgt id='1284'> +8.5102259e+01 </wgt>
<wgt id='1285'> +8.5240813e+01 </wgt>
<wgt id='1286'> +8.5046786e+01 </wgt>
<wgt id='1287'> +8.5887065e+01 </wgt>
<wgt id='1288'> +8.5141847e+01 </wgt>
<wgt id='1289'> +8.4387480e+01 </wgt>
<wgt id='1290'> +8.5440428e+01 </wgt>
<wgt id='1291'> +8.5384013e+01 </wgt>
<wgt id='1292'> +8.5833233e+01 </wgt>
<wgt id='1293'> +8.4982732e+01 </wgt>
<wgt id='1294'> +8.4980799e+01 </wgt>
<wgt id='1295'> +8.5309600e+01 </wgt>
<wgt id='1296'> +8.5019507e+01 </wgt>
<wgt id='1297'> +8.4926965e+01 </wgt>
<wgt id='1298'> +8.5699950e+01 </wgt>
<wgt id='1299'> +8.5355189e+01 </wgt>
<wgt id='1300'> +8.4970412e+01 </wgt>
<wgt id='1301'> +8.5322368e+01 </wgt>
<wgt id='1302'> +8.5354625e+01 </wgt>
<wgt id='1303'> +8.5537951e+01 </wgt>
<wgt id='1304'> +8.5621931e+01 </wgt>
<wgt id='1305'> +8.5065404e+01 </wgt>
<wgt id='1306'> +8.5270898e+01 </wgt>
<wgt id='1307'> +8.5735206e+01 </wgt>
<wgt id='1308'> +8.5555374e+01 </wgt>
<wgt id='1309'> +8.5329950e+01 </wgt>
<wgt id='1310'> +8.5361676e+01 </wgt>
<wgt id='1311'> +8.5676650e+01 </wgt>
<wgt id='1312'> +8.5206610e+01 </wgt>
<wgt id='1313'> +8.5087819e+01 </wgt>
<wgt id='1314'> +8.5414714e+01 </wgt>
<wgt id='1315'> +8.5648503e+01 </wgt>
<wgt id='1316'> +8.5313717e+01 </wgt>
<wgt id='1317'> +8.1344495e+01 </wgt>
<wgt id='1318'> +8.9867862e+01 </wgt>
<wgt id='1319'> +3.3203608e+01 </wgt>
<wgt id='1320'> +8.8273596e+01 </wgt>
<wgt id='1321'> +8.8588081e+01 </wgt>
<wgt id='1322'> +8.8743626e+01 </wgt>
<wgt id='1323'> +9.2197275e+01 </wgt>
<wgt id='1324'> +8.5534229e+01 </wgt>
<wgt id='1325'> +9.0573188e+01 </wgt>
<wgt id='1326'> +8.6962057e+01 </wgt>
<wgt id='1327'> +8.8416941e+01 </wgt>
<wgt id='1328'> +8.8448748e+01 </wgt>
<wgt id='1329'> +8.7054233e+01 </wgt>
<wgt id='1330'> +8.8364262e+01 </wgt>
<wgt id='1331'> +8.5544304e+01 </wgt>
<wgt id='1332'> +9.0525279e+01 </wgt>
<wgt id='1333'> +8.8426534e+01 </wgt>
<wgt id='1334'> +8.7144951e+01 </wgt>
<wgt id='1335'> +7.3966771e+01 </wgt>
<wgt id='1336'> +1.0338127e+02 </wgt>
<wgt id='1337'> +8.6427358e+01 </wgt>
<wgt id='1338'> +9.0355617e+01 </wgt>
<wgt id='1339'> +8.7230733e+01 </wgt>
<wgt id='1340'> +8.9304116e+01 </wgt>
<wgt id='1341'> +8.6060872e+01 </wgt>
<wgt id='1342'> +9.2513974e+01 </wgt>
<wgt id='1343'> +8.7802981e+01 </wgt>
<wgt id='1344'> +8.8591724e+01 </wgt>
<wgt id='1345'> +8.8722729e+01 </wgt>
<wgt id='1346'> +8.7886778e+01 </wgt>
<wgt id='1347'> +8.7941643e+01 </wgt>
<wgt id='1348'> +8.8630658e+01 </wgt>
<wgt id='1349'> +8.8763527e+01 </wgt>
<wgt id='1350'> +8.8095587e+01 </wgt>
<wgt id='1351'> +8.8095160e+01 </wgt>
<wgt id='1352'> +8.8467230e+01 </wgt>
<wgt id='1353'> +8.8294068e+01 </wgt>
<wgt id='1354'> +8.8129310e+01 </wgt>
<wgt id='1355'> +8.8923861e+01 </wgt>
<wgt id='1356'> +8.7667894e+01 </wgt>
<wgt id='1357'> +8.9662763e+01 </wgt>
<wgt id='1358'> +8.5569769e+01 </wgt>
<wgt id='1359'> +9.2879439e+01 </wgt>
<wgt id='1360'> +8.3037487e+01 </wgt>
<wgt id='1361'> +8.8187613e+01 </wgt>
<wgt id='1362'> +8.8590192e+01 </wgt>
<wgt id='1363'> +8.7157774e+01 </wgt>
<wgt id='1364'> +8.9159962e+01 </wgt>
<wgt id='1365'> +8.2763725e+01 </wgt>
<wgt id='1366'> +9.1249595e+01 </wgt>
<wgt id='1367'> +8.7539584e+01 </wgt>
<wgt id='1368'> +8.7324047e+01 </wgt>
<wgt id='1369'> +8.9626020e+01 </wgt>
<wgt id='1370'> +8.3259219e+01 </wgt>
<wgt id='1371'> +8.7434355e+01 </wgt>
<wgt id='1372'> +8.7115239e+01 </wgt>
<wgt id='1373'> +8.5351375e+01 </wgt>
<wgt id='1374'> +8.9396394e+01 </wgt>
<wgt id='1375'> +8.8179887e+01 </wgt>
<wgt id='1376'> +7.7897840e+01 </wgt>
<wgt id='1377'> +8.3910706e+01 </wgt>
<wgt id='1378'> +9.2473239e+01 </wgt>
<wgt id='1379'> +9.0842281e+01 </wgt>
<wgt id='1380'> +8.6719129e+01 </wgt>
<wgt id='1381'> +9.4430801e+01 </wgt>
<wgt id='1382'> +7.2975449e+01 </wgt>
<wgt id='1383'> +9.2947587e+01 </wgt>
<wgt id='1384'> +8.7890472e+01 </wgt>
<wgt id='1385'> +1.2112257e+02 </wgt>
<wgt id='1386'> +1.2155832e+02 </wgt>
<wgt id='1387'> +1.2063560e+02 </wgt>
<wgt id='1388'> +1.2063342e+02 </wgt>
<wgt id='1389'> +1.2196303e+02 </wgt>
<wgt id='1390'> +1.2106472e+02 </wgt>
<wgt id='1391'> +1.2119315e+02 </wgt>
<wgt id='1392'> +1.2120519e+02 </wgt>
<wgt id='1393'> +1.2106536e+02 </wgt>
<wgt id='1394'> +1.2071348e+02 </wgt>
<wgt id='1395'> +1.2163716e+02 </wgt>
<wgt id='1396'> +1.1980195e+02 </wgt>
<wgt id='1397'> +1.2181330e+02 </wgt>
<wgt id='1398'> +1.2116100e+02 </wgt>
<wgt id='1399'> +1.2109223e+02 </wgt>
<wgt id='1400'> +1.2114623e+02 </wgt>
<wgt id='1401'> +1.2109697e+02 </wgt>
<wgt id='1402'> +1.2021009e+02 </wgt>
<wgt id='1403'> +1.2154746e+02 </wgt>
<wgt id='1404'> +1.2349824e+02 </wgt>
<wgt id='1405'> +1.1997103e+02 </wgt>
<wgt id='1406'> +1.2335686e+02 </wgt>
<wgt id='1407'> +1.1709764e+02 </wgt>
<wgt id='1408'> +1.2336855e+02 </wgt>
<wgt id='1409'> +1.1663264e+02 </wgt>
<wgt id='1410'> +1.2159532e+02 </wgt>
<wgt id='1411'> +1.1987176e+02 </wgt>
<wgt id='1412'> +1.2045681e+02 </wgt>
<wgt id='1413'> +1.2194368e+02 </wgt>
<wgt id='1414'> +1.2108852e+02 </wgt>
<wgt id='1415'> +1.2119718e+02 </wgt>
<wgt id='1416'> +1.2140054e+02 </wgt>
<wgt id='1417'> +1.2095911e+02 </wgt>
<wgt id='1418'> +1.2146562e+02 </wgt>
<wgt id='1419'> +1.2042056e+02 </wgt>
<wgt id='1420'> +1.2097247e+02 </wgt>
<wgt id='1421'> +1.2055394e+02 </wgt>
<wgt id='1422'> +1.2172821e+02 </wgt>
<wgt id='1423'> +1.2037643e+02 </wgt>
<wgt id='1424'> +1.2123927e+02 </wgt>
<wgt id='1425'> +1.2056951e+02 </wgt>
<wgt id='1426'> +1.1568506e+02 </wgt>
<wgt id='1427'> +1.2374484e+02 </wgt>
<wgt id='1428'> +1.1859804e+02 </wgt>
<wgt id='1429'> +1.2330837e+02 </wgt>
<wgt id='1430'> +1.1709227e+02 </wgt>
<wgt id='1431'> +1.2125598e+02 </wgt>
<wgt id='1432'> +1.2009073e+02 </wgt>
<wgt id='1433'> +1.1798520e+02 </wgt>
<wgt id='1434'> +1.2069558e+02 </wgt>
<wgt id='1435'> +1.2094379e+02 </wgt>
<wgt id='1436'> +8.5678052e+01 </wgt>
<wgt id='1437'> +8.5669500e+01 </wgt>
<wgt id='1438'> +8.5704149e+01 </wgt>
<wgt id='1439'> +8.5681065e+01 </wgt>
<wgt id='1440'> +8.5556256e+01 </wgt>
<wgt id='1441'> +8.4808143e+01 </wgt>
<wgt id='1442'> +8.4574997e+01 </wgt>
<wgt id='1443'> +8.5676859e+01 </wgt>
<wgt id='1444'> +8.5318022e+01 </wgt>
<wgt id='1445'> +8.4836474e+01 </wgt>
<wgt id='1446'> +8.5834775e+01 </wgt>
<wgt id='1447'> +8.5665111e+01 </wgt>
<wgt id='1448'> +8.5067976e+01 </wgt>
<wgt id='1449'> +8.5737589e+01 </wgt>
<wgt id='1450'> +8.5845603e+01 </wgt>
<wgt id='1451'> +8.5599938e+01 </wgt>
<wgt id='1452'> +8.5353385e+01 </wgt>
<wgt id='1453'> +8.5902819e+01 </wgt>
<wgt id='1454'> +8.6001043e+01 </wgt>
<wgt id='1455'> +8.5564085e+01 </wgt>
<wgt id='1456'> +8.5625074e+01 </wgt>
<wgt id='1457'> +8.5531317e+01 </wgt>
<wgt id='1458'> +8.6363191e+01 </wgt>
<wgt id='1459'> +8.5899260e+01 </wgt>
<wgt id='1460'> +8.5825633e+01 </wgt>
<wgt id='1461'> +8.6241626e+01 </wgt>
<wgt id='1462'> +8.5473020e+01 </wgt>
<wgt id='1463'> +8.5704174e+01 </wgt>
<wgt id='1464'> +8.5530436e+01 </wgt>
<wgt id='1465'> +9.7156638e+01 </wgt>
<wgt id='1466'> +8.5451090e+01 </wgt>
<wgt id='1467'> +8.5881957e+01 </wgt>
<wgt id='1468'> +8.6164094e+01 </wgt>
<wgt id='1469'> +8.4079142e+01 </wgt>
<wgt id='1470'> +8.6244460e+01 </wgt>
<wgt id='1471'> +8.3879157e+01 </wgt>
<wgt id='1472'> +8.5797447e+01 </wgt>
<wgt id='1473'> +8.6424259e+01 </wgt>
<wgt id='1474'> +8.9371751e+01 </wgt>
<wgt id='1475'> +8.3576977e+01 </wgt>
<wgt id='1476'> +8.3699230e+01 </wgt>
<wgt id='1477'> +8.7468827e+01 </wgt>
<wgt id='1478'> +8.5412253e+01 </wgt>
<wgt id='1479'> +8.3847928e+01 </wgt>
<wgt id='1480'> +8.9630134e+01 </wgt>
<wgt id='1481'> +8.3478996e+01 </wgt>
<wgt id='1482'> +9.1053983e+01 </wgt>
<wgt id='1483'> +8.3648804e+01 </wgt>
<wgt id='1484'> +8.2535697e+01 </wgt>
<wgt id='1485'> +8.8665779e+01 </wgt>
<wgt id='1486'> +8.8642439e+01 </wgt>
<wgt id='1487'> +8.4342655e+01 </wgt>
<wgt id='1488'> +8.3939701e+01 </wgt>
<wgt id='1489'> +8.2602998e+01 </wgt>
<wgt id='1490'> +8.5083893e+01 </wgt>
<wgt id='1491'> +8.5825677e+01 </wgt>
<wgt id='1492'> +8.5884745e+01 </wgt>
<wgt id='1493'> +8.3483244e+01 </wgt>
<wgt id='1494'> +8.4607113e+01 </wgt>
<wgt id='1495'> +8.6221664e+01 </wgt>
<wgt id='1496'> +8.5399524e+01 </wgt>
<wgt id='1497'> +8.5101368e+01 </wgt>
<wgt id='1498'> +8.5090587e+01 </wgt>
<wgt id='1499'> +8.4876977e+01 </wgt>
<wgt id='1500'> +8.5411106e+01 </wgt>
<wgt id='1501'> +8.5970215e+01 </wgt>
<wgt id='1502'> +8.5780414e+01 </wgt>
<wgt id='1503'> +8.5815386e+01 </wgt>
<wgt id='1504'> +8.4536884e+01 </wgt>
<wgt id='1505'> +8.4633748e+01 </wgt>
<wgt id='1506'> +8.5379411e+01 </wgt>
<wgt id='1507'> +8.5571126e+01 </wgt>
<wgt id='1508'> +8.5660523e+01 </wgt>
<wgt id='1509'> +8.5090723e+01 </wgt>
<wgt id='1510'> +8.6029273e+01 </wgt>
<wgt id='1511'> +8.5565451e+01 </wgt>
<wgt id='1512'> +8.5765613e+01 </wgt>
<wgt id='1513'> +8.5938893e+01 </wgt>
<wgt id='1514'> +8.5196009e+01 </wgt>
<wgt id='1515'> +8.5668803e+01 </wgt>
<wgt id='1516'> +8.5482407e+01 </wgt>
<wgt id='1517'> +8.4944540e+01 </wgt>
<wgt id='1518'> +8.5810531e+01 </wgt>
<wgt id='1519'> +8.4815447e+01 </wgt>
<wgt id='1520'> +8.4819082e+01 </wgt>
<wgt id='1521'> +8.6413706e+01 </wgt>
<wgt id='1522'> +8.6281216e+01 </wgt>
<wgt id='1523'> +8.5620703e+01 </wgt>
<wgt id='1524'> +8.5424194e+01 </wgt>
<wgt id='1525'> +8.5268675e+01 </wgt>
<wgt id='1526'> +8.5340555e+01 </wgt>
<wgt id='1527'> +8.5161891e+01 </wgt>
<wgt id='1528'> +8.5080506e+01 </wgt>
<wgt id='1529'> +8.5224088e+01 </wgt>
<wgt id='1530'> +8.5446181e+01 </wgt>
<wgt id='1531'> +8.5404741e+01 </wgt>
<wgt id='1532'> +8.5592419e+01 </wgt>
<wgt id='1533'> +8.5488156e+01 </wgt>
<wgt id='1534'> +8.5208382e+01 </wgt>
<wgt id='1535'> +8.5098752e+01 </wgt>
<wgt id='1536'> +8.5322208e+01 </wgt>
<wgt id='1537'> +8.5057818e+01 </wgt>
<wgt id='1538'> +8.5392048e+01 </wgt>
<wgt id='1539'> +8.5668856e+01 </wgt>
<wgt id='1540'> +8.5400800e+01 </wgt>
<wgt id='1541'> +8.5407695e+01 </wgt>
<wgt id='1542'> +8.5458969e+01 </wgt>
<wgt id='1543'> +8.5526719e+01 </wgt>
<wgt id='1544'> +8.5685058e+01 </wgt>
<wgt id='1545'> +8.5746364e+01 </wgt>
<wgt id='1546'> +8.5375100e+01 </wgt>
<wgt id='1547'> +8.5519645e+01 </wgt>
<wgt id='1548'> +8.5572137e+01 </wgt>
<wgt id='1549'> +8.5577867e+01 </wgt>
<wgt id='1550'> +8.5212147e+01 </wgt>
<wgt id='1551'> +8.5330149e+01 </wgt>
<wgt id='1552'> +8.5494370e+01 </wgt>
<wgt id='1553'> +8.5732915e+01 </wgt>
<wgt id='1554'> +8.5509828e+01 </wgt>
<wgt id='1555'> +8.5415335e+01 </wgt>
<wgt id='1556'> +8.5359421e+01 </wgt>
<wgt id='1557'> +8.5327127e+01 </wgt>
<wgt id='1558'> +8.5413576e+01 </wgt>
<wgt id='1559'> +8.5430266e+01 </wgt>
<wgt id='1560'> +8.5509833e+01 </wgt>
<wgt id='1561'> +8.5316808e+01 </wgt>
<wgt id='1562'> +8.5446404e+01 </wgt>
<wgt id='1563'> +8.5491980e+01 </wgt>
<wgt id='1564'> +8.5534540e+01 </wgt>
<wgt id='1565'> +8.5377747e+01 </wgt>
<wgt id='1566'> +8.5487130e+01 </wgt>
<wgt id='1567'> +8.2152119e+01 </wgt>
<wgt id='1568'> +8.9104266e+01 </wgt>
<wgt id='1569'> +8.5569293e+01 </wgt>
<wgt id='1570'> +8.7316108e+01 </wgt>
<wgt id='1571'> +8.4883512e+01 </wgt>
<wgt id='1572'> +8.6436943e+01 </wgt>
<wgt id='1573'> +8.4879660e+01 </wgt>
<wgt id='1574'> +8.4729115e+01 </wgt>
<wgt id='1575'> +8.4510890e+01 </wgt>
<wgt id='1576'> +8.3652344e+01 </wgt>
<wgt id='1577'> +8.5484351e+01 </wgt>
<wgt id='1578'> +8.6354843e+01 </wgt>
<wgt id='1579'> +8.7721630e+01 </wgt>
<wgt id='1580'> +8.2687353e+01 </wgt>
<wgt id='1581'> +8.4568107e+01 </wgt>
<wgt id='1582'> +8.6590951e+01 </wgt>
<wgt id='1583'> +8.3642644e+01 </wgt>
<wgt id='1584'> +8.4658200e+01 </wgt>
<wgt id='1585'> +8.3592840e+01 </wgt>
<wgt id='1586'> +8.9273557e+01 </wgt>
<wgt id='1587'> +8.2009886e+01 </wgt>
<wgt id='1588'> +8.7245191e+01 </wgt>
<wgt id='1589'> +8.5472712e+01 </wgt>
<wgt id='1590'> +8.6347525e+01 </wgt>
<wgt id='1591'> +8.9310892e+01 </wgt>
<wgt id='1592'> +8.8664253e+01 </wgt>
<wgt id='1593'> +8.3904289e+01 </wgt>
<wgt id='1594'> +8.4828329e+01 </wgt>
<wgt id='1595'> +8.8165256e+01 </wgt>
<wgt id='1596'> +8.4401559e+01 </wgt>
<wgt id='1597'> +8.6221684e+01 </wgt>
<wgt id='1598'> +8.6736676e+01 </wgt>
<wgt id='1599'> +8.5813615e+01 </wgt>
<wgt id='1600'> +8.6570109e+01 </wgt>
<wgt id='1601'> +8.5240550e+01 </wgt>
<wgt id='1602'> +8.6253005e+01 </wgt>
<wgt id='1603'> +8.4827332e+01 </wgt>
<wgt id='1604'> +8.5694292e+01 </wgt>
<wgt id='1605'> +8.5343857e+01 </wgt>
<wgt id='1606'> +8.7226585e+01 </wgt>
<wgt id='1607'> +8.5830618e+01 </wgt>
<wgt id='1608'> +8.4931821e+01 </wgt>
<wgt id='1609'> +8.5779820e+01 </wgt>
<wgt id='1610'> +8.4790508e+01 </wgt>
<wgt id='1611'> +8.5213198e+01 </wgt>
<wgt id='1612'> +8.5923536e+01 </wgt>
<wgt id='1613'> +8.5970909e+01 </wgt>
<wgt id='1614'> +8.5667733e+01 </wgt>
<wgt id='1615'> +8.4864635e+01 </wgt>
<wgt id='1616'> +8.5415761e+01 </wgt>
<wgt id='1617'> +8.5475445e+01 </wgt>
<wgt id='1618'> +8.5435465e+01 </wgt>
<wgt id='1619'> +8.5009412e+01 </wgt>
<wgt id='1620'> +8.5234785e+01 </wgt>
<wgt id='1621'> +8.5576795e+01 </wgt>
<wgt id='1622'> +8.5135617e+01 </wgt>
<wgt id='1623'> +8.5338139e+01 </wgt>
<wgt id='1624'> +8.6470514e+01 </wgt>
<wgt id='1625'> +8.5337133e+01 </wgt>
<wgt id='1626'> +8.5198421e+01 </wgt>
<wgt id='1627'> +8.5286208e+01 </wgt>
<wgt id='1628'> +8.5486941e+01 </wgt>
<wgt id='1629'> +8.5399388e+01 </wgt>
<wgt id='1630'> +8.5716713e+01 </wgt>
<wgt id='1631'> +8.5712237e+01 </wgt>
<wgt id='1632'> +8.5471872e+01 </wgt>
<wgt id='1633'> +8.5581589e+01 </wgt>
<wgt id='1634'> +8.5302871e+01 </wgt>
<wgt id='1635'> +8.5503602e+01 </wgt>
<wgt id='1636'> +8.5322191e+01 </wgt>
<wgt id='1637'> +8.6009053e+01 </wgt>
<wgt id='1638'> +8.5902081e+01 </wgt>
<wgt id='1639'> +8.6132838e+01 </wgt>
<wgt id='1640'> +8.5523171e+01 </wgt>
<wgt id='1641'> +8.5829558e+01 </wgt>
<wgt id='1642'> +8.5127030e+01 </wgt>
<wgt id='1643'> +8.5664217e+01 </wgt>
<wgt id='1644'> +8.5668760e+01 </wgt>
<wgt id='1645'> +8.5437512e+01 </wgt>
<wgt id='1646'> +8.5324005e+01 </wgt>
<wgt id='1647'> +8.5365794e+01 </wgt>
<wgt id='1648'> +8.5548971e+01 </wgt>
<wgt id='1649'> +8.5737994e+01 </wgt>
<wgt id='1650'> +8.5791860e+01 </wgt>
<wgt id='1651'> +8.5456207e+01 </wgt>
<wgt id='1652'> +8.5564414e+01 </wgt>
<wgt id='1653'> +8.5615811e+01 </wgt>
<wgt id='1654'> +8.5651876e+01 </wgt>
<wgt id='1655'> +8.5624853e+01 </wgt>
<wgt id='1656'> +8.5502317e+01 </wgt>
<wgt id='1657'> +8.5465507e+01 </wgt>
<wgt id='1658'> +8.5560615e+01 </wgt>
<wgt id='1659'> +8.5700831e+01 </wgt>
<wgt id='1660'> +8.5583841e+01 </wgt>
<wgt id='1661'> +8.5521547e+01 </wgt>
<wgt id='1662'> +8.5479265e+01 </wgt>
<wgt id='1663'> +8.5661005e+01 </wgt>
<wgt id='1664'> +8.5543128e+01 </wgt>
<wgt id='1665'> +8.5642753e+01 </wgt>
<wgt id='1666'> +8.5514843e+01 </wgt>
<wgt id='1667'> +8.5613598e+01 </wgt>
<wgt id='1668'> +8.5588966e+01 </wgt>
<wgt id='1669'> +8.5692221e+01 </wgt>
<wgt id='1670'> +8.2518076e+01 </wgt>
<wgt id='1671'> +8.8418718e+01 </wgt>
<wgt id='1672'> +8.5567450e+01 </wgt>
<wgt id='1673'> +8.4428771e+01 </wgt>
<wgt id='1674'> +9.6370256e+01 </wgt>
<wgt id='1675'> +8.5669832e+01 </wgt>
<wgt id='1676'> +8.7872641e+01 </wgt>
<wgt id='1677'> +8.6976856e+01 </wgt>
<wgt id='1678'> +8.5468640e+01 </wgt>
<wgt id='1679'> +8.5360924e+01 </wgt>
<wgt id='1680'> +8.5273063e+01 </wgt>
<wgt id='1681'> +8.5491995e+01 </wgt>
<wgt id='1682'> +8.4910003e+01 </wgt>
<wgt id='1683'> +8.5780554e+01 </wgt>
<wgt id='1684'> +8.5103210e+01 </wgt>
<wgt id='1685'> +8.5355710e+01 </wgt>
<wgt id='1686'> +8.6136859e+01 </wgt>
<wgt id='1687'> +8.6217478e+01 </wgt>
<wgt id='1688'> +8.6217939e+01 </wgt>
<wgt id='1689'> +8.4402406e+01 </wgt>
<wgt id='1690'> +8.5450317e+01 </wgt>
<wgt id='1691'> +8.5220637e+01 </wgt>
<wgt id='1692'> +8.4738856e+01 </wgt>
<wgt id='1693'> +8.6688315e+01 </wgt>
<wgt id='1694'> +8.5365990e+01 </wgt>
<wgt id='1695'> +8.5492464e+01 </wgt>
<wgt id='1696'> +8.5664130e+01 </wgt>
<wgt id='1697'> +8.5653269e+01 </wgt>
<wgt id='1698'> +8.4962099e+01 </wgt>
<wgt id='1699'> +8.5672166e+01 </wgt>
<wgt id='1700'> +8.4636077e+01 </wgt>
<wgt id='1701'> +8.5343015e+01 </wgt>
<wgt id='1702'> +8.5657679e+01 </wgt>
<wgt id='1703'> +8.2152119e+01 </wgt>
<wgt id='1704'> +8.9104266e+01 </wgt>
<wgt id='1705'> +8.5581478e+01 </wgt>
<wgt id='1706'> +8.9476371e+01 </wgt>
<wgt id='1707'> +8.3572662e+01 </wgt>
<wgt id='1708'> +8.5995155e+01 </wgt>
<wgt id='1709'> +8.4437816e+01 </wgt>
<wgt id='1710'> +8.5225557e+01 </wgt>
<wgt id='1711'> +8.6058916e+01 </wgt>
<wgt id='1712'> +8.6074115e+01 </wgt>
<wgt id='1713'> +8.5847204e+01 </wgt>
<wgt id='1714'> +9.0232366e+01 </wgt>
<wgt id='1715'> +8.4203702e+01 </wgt>
<wgt id='1716'> +8.1166708e+01 </wgt>
<wgt id='1717'> +8.5304504e+01 </wgt>
<wgt id='1718'> +8.5822248e+01 </wgt>
<wgt id='1719'> +8.6332667e+01 </wgt>
<wgt id='1720'> +8.5474725e+01 </wgt>
<wgt id='1721'> +8.5625561e+01 </wgt>
<wgt id='1722'> +8.6510395e+01 </wgt>
<wgt id='1723'> +8.6009869e+01 </wgt>
<wgt id='1724'> +8.5638820e+01 </wgt>
<wgt id='1725'> +8.6807838e+01 </wgt>
<wgt id='1726'> +8.6384272e+01 </wgt>
<wgt id='1727'> +8.3675582e+01 </wgt>
<wgt id='1728'> +8.5514997e+01 </wgt>
<wgt id='1729'> +8.4325515e+01 </wgt>
<wgt id='1730'> +8.5900888e+01 </wgt>
<wgt id='1731'> +8.6966787e+01 </wgt>
<wgt id='1732'> +8.4172054e+01 </wgt>
<wgt id='1733'> +8.4325232e+01 </wgt>
<wgt id='1734'> +8.7098842e+01 </wgt>
<wgt id='1735'> +8.5649302e+01 </wgt>
<wgt id='1736'> +8.2518076e+01 </wgt>
<wgt id='1737'> +8.8418718e+01 </wgt>
<wgt id='1738'> +1.0262866e+02 </wgt>
<wgt id='1739'> +1.0270609e+02 </wgt>
<wgt id='1740'> +1.0255113e+02 </wgt>
<wgt id='1741'> +1.0260981e+02 </wgt>
<wgt id='1742'> +1.0264655e+02 </wgt>
<wgt id='1743'> +1.0286328e+02 </wgt>
<wgt id='1744'> +1.0239447e+02 </wgt>
<wgt id='1745'> +1.0237798e+02 </wgt>
<wgt id='1746'> +1.0287471e+02 </wgt>
<wgt id='1747'> +1.0310733e+02 </wgt>
<wgt id='1748'> +1.0215287e+02 </wgt>
<wgt id='1749'> +1.0276498e+02 </wgt>
<wgt id='1750'> +1.0250846e+02 </wgt>
<wgt id='1751'> +1.0251301e+02 </wgt>
<wgt id='1752'> +1.0274487e+02 </wgt>
<wgt id='1753'> +1.0246746e+02 </wgt>
<wgt id='1754'> +1.0266454e+02 </wgt>
<wgt id='1755'> +1.0248047e+02 </wgt>
<wgt id='1756'> +1.0275017e+02 </wgt>
<wgt id='1757'> +1.0252257e+02 </wgt>
<wgt id='1758'> +1.0271697e+02 </wgt>
<wgt id='1759'> +1.0188627e+02 </wgt>
<wgt id='1760'> +1.0327019e+02 </wgt>
<wgt id='1761'> +1.0402557e+02 </wgt>
<wgt id='1762'> +1.0084827e+02 </wgt>
<wgt id='1763'> +1.0297641e+02 </wgt>
<wgt id='1764'> +1.0241660e+02 </wgt>
<wgt id='1765'> +1.0275094e+02 </wgt>
<wgt id='1766'> +1.0258517e+02 </wgt>
<wgt id='1767'> +1.0262866e+02 </wgt>
<wgt id='1768'> +8.8551156e+01 </wgt>
<wgt id='1769'> +1.1845196e+02 </wgt>
<wgt id='1770'> +7.3645064e+01 </wgt>
<wgt id='1771'> +9.1018566e+01 </wgt>
<wgt id='1772'> +1.0261168e+02 </wgt>
<wgt id='1773'> +1.0251028e+02 </wgt>
<wgt id='1774'> +1.0245056e+02 </wgt>
<wgt id='1775'> +1.0271355e+02 </wgt>
<wgt id='1776'> +1.0188203e+02 </wgt>
<wgt id='1777'> +1.0324680e+02 </wgt>
<wgt id='1778'> +1.0263913e+02 </wgt>
<wgt id='1779'> +1.0305723e+02 </wgt>
<wgt id='1780'> +9.8720952e+01 </wgt>
<wgt id='1781'> +9.6413899e+01 </wgt>
<wgt id='1782'> +9.6481539e+01 </wgt>
<wgt id='1783'> +9.6314092e+01 </wgt>
<wgt id='1784'> +9.6305597e+01 </wgt>
<wgt id='1785'> +9.6489536e+01 </wgt>
<wgt id='1786'> +9.6595592e+01 </wgt>
<wgt id='1787'> +9.6200194e+01 </wgt>
<wgt id='1788'> +9.6135897e+01 </wgt>
<wgt id='1789'> +9.6653116e+01 </wgt>
<wgt id='1790'> +9.6708166e+01 </wgt>
<wgt id='1791'> +9.6089521e+01 </wgt>
<wgt id='1792'> +9.6582498e+01 </wgt>
<wgt id='1793'> +9.6214763e+01 </wgt>
<wgt id='1794'> +9.6166395e+01 </wgt>
<wgt id='1795'> +9.6627728e+01 </wgt>
<wgt id='1796'> +9.6258547e+01 </wgt>
<wgt id='1797'> +9.6457818e+01 </wgt>
<wgt id='1798'> +9.6496416e+01 </wgt>
<wgt id='1799'> +9.6279609e+01 </wgt>
<wgt id='1800'> +9.6141147e+01 </wgt>
<wgt id='1801'> +9.6651481e+01 </wgt>
<wgt id='1802'> +9.6456610e+01 </wgt>
<wgt id='1803'> +9.6196179e+01 </wgt>
<wgt id='1804'> +9.8145728e+01 </wgt>
<wgt id='1805'> +9.4715737e+01 </wgt>
<wgt id='1806'> +9.9470346e+01 </wgt>
<wgt id='1807'> +9.3410929e+01 </wgt>
<wgt id='1808'> +9.8729268e+01 </wgt>
<wgt id='1809'> +9.4339523e+01 </wgt>
<wgt id='1810'> +9.6179442e+01 </wgt>
<wgt id='1811'> +8.3751154e+01 </wgt>
<wgt id='1812'> +1.1028225e+02 </wgt>
<wgt id='1813'> +7.0431226e+01 </wgt>
<wgt id='1814'> +8.6056595e+01 </wgt>
<wgt id='1815'> +1.0046394e+02 </wgt>
<wgt id='1816'> +9.6352397e+01 </wgt>
<wgt id='1817'> +9.5891463e+01 </wgt>
<wgt id='1818'> +9.5659643e+01 </wgt>
<wgt id='1819'> +9.7790103e+01 </wgt>
<wgt id='1820'> +1.0144644e+02 </wgt>
<wgt id='1821'> +9.8909951e+01 </wgt>
<wgt id='1822'> +9.3304564e+01 </wgt>
<wgt id='1823'> +9.4937901e+01 </wgt>
<wgt id='1824'> +8.7590562e+01 </wgt>
<wgt id='1825'> +8.7559559e+01 </wgt>
<wgt id='1826'> +8.7528726e+01 </wgt>
<wgt id='1827'> +8.7497744e+01 </wgt>
<wgt id='1828'> +8.7466942e+01 </wgt>
<wgt id='1829'> +8.7435963e+01 </wgt>
<wgt id='1830'> +8.7405197e+01 </wgt>
<wgt id='1831'> +8.7374215e+01 </wgt>
<wgt id='1832'> +8.7343664e+01 </wgt>
<wgt id='1833'> +8.7312634e+01 </wgt>
<wgt id='1834'> +8.7281772e+01 </wgt>
<wgt id='1835'> +8.7250871e+01 </wgt>
<wgt id='1836'> +8.7220071e+01 </wgt>
<wgt id='1837'> +8.7189188e+01 </wgt>
<wgt id='1838'> +8.7158376e+01 </wgt>
<wgt id='1839'> +8.7127502e+01 </wgt>
<wgt id='1840'> +8.7096671e+01 </wgt>
<wgt id='1841'> +8.7065788e+01 </wgt>
<wgt id='1842'> +8.7035005e+01 </wgt>
<wgt id='1843'> +8.7004133e+01 </wgt>
<wgt id='1844'> +8.6973342e+01 </wgt>
<wgt id='1845'> +8.6942480e+01 </wgt>
<wgt id='1846'> +8.6911692e+01 </wgt>
<wgt id='1847'> +8.6880831e+01 </wgt>
<wgt id='1848'> +8.6850103e+01 </wgt>
<wgt id='1849'> +8.6819190e+01 </wgt>
<wgt id='1850'> +8.6788500e+01 </wgt>
<wgt id='1851'> +8.6757588e+01 </wgt>
<wgt id='1852'> +8.6726920e+01 </wgt>
<wgt id='1853'> +8.6696025e+01 </wgt>
<wgt id='1854'> +8.6665222e+01 </wgt>
<wgt id='1855'> +8.4935908e+01 </wgt>
<wgt id='1856'> +8.6667854e+01 </wgt>
<wgt id='1857'> +8.4256739e+01 </wgt>
<wgt id='1858'> +8.5795332e+01 </wgt>
<wgt id='1859'> +8.4249659e+01 </wgt>
<wgt id='1860'> +8.4100373e+01 </wgt>
<wgt id='1861'> +8.3886565e+01 </wgt>
<wgt id='1862'> +8.3036067e+01 </wgt>
<wgt id='1863'> +8.4852296e+01 </wgt>
<wgt id='1864'> +8.5715796e+01 </wgt>
<wgt id='1865'> +8.7070257e+01 </wgt>
<wgt id='1866'> +8.2074747e+01 </wgt>
<wgt id='1867'> +8.3942517e+01 </wgt>
<wgt id='1868'> +8.5947962e+01 </wgt>
<wgt id='1869'> +8.3025709e+01 </wgt>
<wgt id='1870'> +8.4030720e+01 </wgt>
<wgt id='1871'> +8.2977190e+01 </wgt>
<wgt id='1872'> +8.8612672e+01 </wgt>
<wgt id='1873'> +8.1399152e+01 </wgt>
<wgt id='1874'> +8.6603799e+01 </wgt>
<wgt id='1875'> +8.4840871e+01 </wgt>
<wgt id='1876'> +8.5705262e+01 </wgt>
<wgt id='1877'> +8.8651851e+01 </wgt>
<wgt id='1878'> +8.8005089e+01 </wgt>
<wgt id='1879'> +8.3279951e+01 </wgt>
<wgt id='1880'> +8.4201072e+01 </wgt>
<wgt id='1881'> +8.7510430e+01 </wgt>
<wgt id='1882'> +8.3777723e+01 </wgt>
<wgt id='1883'> +8.5584913e+01 </wgt>
<wgt id='1884'> +8.6094886e+01 </wgt>
<wgt id='1885'> +8.5178158e+01 </wgt>
<wgt id='1886'> +8.5928704e+01 </wgt>
<wgt id='1887'> +8.4608254e+01 </wgt>
<wgt id='1888'> +8.5612877e+01 </wgt>
<wgt id='1889'> +8.4200823e+01 </wgt>
<wgt id='1890'> +8.5060456e+01 </wgt>
<wgt id='1891'> +8.4711996e+01 </wgt>
<wgt id='1892'> +8.6579889e+01 </wgt>
<wgt id='1893'> +8.5194674e+01 </wgt>
<wgt id='1894'> +8.4303020e+01 </wgt>
<wgt id='1895'> +8.5143448e+01 </wgt>
<wgt id='1896'> +8.4163812e+01 </wgt>
<wgt id='1897'> +8.4582640e+01 </wgt>
<wgt id='1898'> +8.5287066e+01 </wgt>
<wgt id='1899'> +8.5334717e+01 </wgt>
<wgt id='1900'> +8.5033989e+01 </wgt>
<wgt id='1901'> +8.4236630e+01 </wgt>
<wgt id='1902'> +8.4783679e+01 </wgt>
<wgt id='1903'> +8.4842732e+01 </wgt>
<wgt id='1904'> +8.4801568e+01 </wgt>
<wgt id='1905'> +8.4379663e+01 </wgt>
<wgt id='1906'> +8.4603984e+01 </wgt>
<wgt id='1907'> +8.4943762e+01 </wgt>
<wgt id='1908'> +8.4505016e+01 </wgt>
<wgt id='1909'> +8.4706251e+01 </wgt>
<wgt id='1910'> +8.5829130e+01 </wgt>
<wgt id='1911'> +8.4705353e+01 </wgt>
<wgt id='1912'> +8.4568982e+01 </wgt>
<wgt id='1913'> +8.4654045e+01 </wgt>
<wgt id='1914'> +8.4854967e+01 </wgt>
<wgt id='1915'> +8.4767241e+01 </wgt>
<wgt id='1916'> +8.5081550e+01 </wgt>
<wgt id='1917'> +8.5078339e+01 </wgt>
<wgt id='1918'> +8.4837508e+01 </wgt>
<wgt id='1919'> +8.4949841e+01 </wgt>
<wgt id='1920'> +8.4671694e+01 </wgt>
<wgt id='1921'> +8.4873497e+01 </wgt>
<wgt id='1922'> +8.4692139e+01 </wgt>
<wgt id='1923'> +8.5372976e+01 </wgt>
<wgt id='1924'> +8.5266238e+01 </wgt>
<wgt id='1925'> +8.5492926e+01 </wgt>
<wgt id='1926'> +8.4891348e+01 </wgt>
<wgt id='1927'> +8.5193313e+01 </wgt>
<wgt id='1928'> +8.4496837e+01 </wgt>
<wgt id='1929'> +8.5032305e+01 </wgt>
<wgt id='1930'> +8.5034414e+01 </wgt>
<wgt id='1931'> +8.4804915e+01 </wgt>
<wgt id='1932'> +8.4696326e+01 </wgt>
<wgt id='1933'> +8.4733519e+01 </wgt>
<wgt id='1934'> +8.4914719e+01 </wgt>
<wgt id='1935'> +8.5105133e+01 </wgt>
<wgt id='1936'> +8.5153150e+01 </wgt>
<wgt id='1937'> +8.4825242e+01 </wgt>
<wgt id='1938'> +8.4931439e+01 </wgt>
<wgt id='1939'> +8.4980277e+01 </wgt>
<wgt id='1940'> +8.5018403e+01 </wgt>
<wgt id='1941'> +8.4989618e+01 </wgt>
<wgt id='1942'> +8.4871236e+01 </wgt>
<wgt id='1943'> +8.4831440e+01 </wgt>
<wgt id='1944'> +8.4928119e+01 </wgt>
<wgt id='1945'> +8.5066632e+01 </wgt>
<wgt id='1946'> +8.4948796e+01 </wgt>
<wgt id='1947'> +8.4890146e+01 </wgt>
<wgt id='1948'> +8.4847146e+01 </wgt>
<wgt id='1949'> +8.5025762e+01 </wgt>
<wgt id='1950'> +8.4911461e+01 </wgt>
<wgt id='1951'> +8.5008045e+01 </wgt>
<wgt id='1952'> +8.4882886e+01 </wgt>
<wgt id='1953'> +8.4980026e+01 </wgt>
<wgt id='1954'> +8.4954768e+01 </wgt>
<wgt id='1955'> +8.5056613e+01 </wgt>
<wgt id='1956'> +8.4935267e+01 </wgt>
<wgt id='1957'> +8.4939412e+01 </wgt>
<wgt id='1958'> +8.4936584e+01 </wgt>
<wgt id='1959'> +8.4936693e+01 </wgt>
<wgt id='1960'> +8.4937883e+01 </wgt>
<wgt id='1961'> +8.4936196e+01 </wgt>
<wgt id='1962'> +8.4940162e+01 </wgt>
</rwgt>
</event>
<event npLO=" -1 " npNLO=" 1 ">
 8      1 +1.5146096e+02 7.66437780e+00 7.54677110e-03 1.63877440e-01
        1 -1    0    0  502    0 +0.0000000000e+00 +0.0000000000e+00 +1.2594035000e+03 1.2594035000e+03 0.0000000000e+00 0.0000e+00 9.0000e+00
       -1 -1    0    0    0  503 +0.0000000000e+00 +0.0000000000e+00 -7.5422683000e+00 7.5422683000e+00 0.0000000000e+00 0.0000e+00 9.0000e+00
       23  2    1    2    0    0 +2.1037924000e+01 -9.7248383000e+00 +3.0543532000e+02 3.1952798000e+02 9.0940823000e+01 0.0000e+00 0.0000e+00
       13  1    3    3    0    0 -3.6013314000e+01 -2.3618506000e+00 +1.2393718000e+02 1.2908510000e+02 0.0000000000e+00 0.0000e+00 9.0000e+00
      -13  1    3    3    0    0 +3.3347959000e+01 -6.1162244000e+00 +1.0328014000e+02 1.0870272000e+02 0.0000000000e+00 0.0000e+00 9.0000e+00
       22  1    3    3    0    0 +2.3703280000e+01 -1.2467633000e+00 +7.8217994000e+01 8.1740164000e+01 0.0000000000e+00 0.0000e+00 9.0000e+00
       21  1    1    2  502  501 -7.8301285000e+00 +1.2049007000e+01 +8.4343674000e+02 8.4355914000e+02 0.0000000000e+00 0.0000e+00 9.0000e+00
       21  1    1    2  501  503 -1.3207795000e+01 -2.3241684000e+00 +1.0298918000e+02 1.0385865000e+02 0.0000000000e+00 0.0000e+00 9.0000e+00
#aMCatNLO 2  0  0  2  6 0.20882599E+02 0.00000000E+00 -9  7  0 0.00000000E+00 0.00000000E+00 0.00000000E+00 0.00000000E+00 0.00000000E+00
<rwgt>
<wgt id='1001'> +1.5146000e+02 </wgt>
<wgt id='1002'> +1.5146000e+02 </wgt>
<wgt id='1003'> +1.4358000e+02 </wgt>
<wgt id='1004'> +1.5434000e+02 </wgt>
<wgt id='1005'> +1.5622000e+02 </wgt>
<wgt id='1006'> +1.5692000e+02 </wgt>
<wgt id='1007'> +1.3747000e+02 </wgt>
<wgt id='1008'> +1.4437000e+02 </wgt>
<wgt id='1009'> +1.5333000e+02 </wgt>
<wgt id='1010'> +1.5870000e+02 </wgt>
<wgt id='1011'> +1.5282000e+02 </wgt>
<wgt id='1012'> +1.5586000e+02 </wgt>
<wgt id='1013'> +1.4703000e+02 </wgt>
<wgt id='1014'> +1.4597000e+02 </wgt>
<wgt id='1015'> +1.4660000e+02 </wgt>
<wgt id='1016'> +1.4978000e+02 </wgt>
<wgt id='1017'> +1.5225000e+02 </wgt>
<wgt id='1018'> +1.5291000e+02 </wgt>
<wgt id='1019'> +1.4629000e+02 </wgt>
<wgt id='1020'> +1.3711000e+02 </wgt>
<wgt id='1021'> +1.5507000e+02 </wgt>
<wgt id='1022'> +1.5440000e+02 </wgt>
<wgt id='1023'> +1.5838000e+02 </wgt>
<wgt id='1024'> +1.5661000e+02 </wgt>
<wgt id='1025'> +1.6065000e+02 </wgt>
<wgt id='1026'> +1.4847000e+02 </wgt>
<wgt id='1027'> +1.4839000e+02 </wgt>
<wgt id='1028'> +1.5148000e+02 </wgt>
<wgt id='1029'> +1.4856000e+02 </wgt>
<wgt id='1030'> +1.4328000e+02 </wgt>
<wgt id='1031'> +1.5038000e+02 </wgt>
<wgt id='1032'> +1.5462000e+02 </wgt>
<wgt id='1033'> +1.5811000e+02 </wgt>
<wgt id='1034'> +1.4898000e+02 </wgt>
<wgt id='1035'> +1.5487000e+02 </wgt>
<wgt id='1036'> +1.4881000e+02 </wgt>
<wgt id='1037'> +1.6064000e+02 </wgt>
<wgt id='1038'> +1.5322000e+02 </wgt>
<wgt id='1039'> +1.4836000e+02 </wgt>
<wgt id='1040'> +1.4679000e+02 </wgt>
<wgt id='1041'> +1.5434000e+02 </wgt>
<wgt id='1042'> +1.5432000e+02 </wgt>
<wgt id='1043'> +1.5434000e+02 </wgt>
<wgt id='1044'> +1.5311000e+02 </wgt>
<wgt id='1045'> +1.5192000e+02 </wgt>
<wgt id='1046'> +1.5225000e+02 </wgt>
<wgt id='1047'> +1.5811000e+02 </wgt>
<wgt id='1048'> +1.4588000e+02 </wgt>
<wgt id='1049'> +1.5261000e+02 </wgt>
<wgt id='1050'> +1.5207000e+02 </wgt>
<wgt id='1051'> +1.4869000e+02 </wgt>
<wgt id='1052'> +1.5326000e+02 </wgt>
<wgt id='1053'> +1.5506000e+02 </wgt>
<wgt id='1054'> +1.5282000e+02 </wgt>
<wgt id='1055'> +1.4658000e+02 </wgt>
<wgt id='1056'> +1.5112000e+02 </wgt>
<wgt id='1057'> +1.5301000e+02 </wgt>
<wgt id='1058'> +1.4149000e+02 </wgt>
<wgt id='1059'> +1.4876000e+02 </wgt>
<wgt id='1060'> +1.4977000e+02 </wgt>
<wgt id='1061'> +1.5662000e+02 </wgt>
<wgt id='1062'> +1.5692000e+02 </wgt>
<wgt id='1063'> +1.4369000e+02 </wgt>
<wgt id='1064'> +1.5153000e+02 </wgt>
<wgt id='1065'> +1.4146000e+02 </wgt>
<wgt id='1066'> +1.3859000e+02 </wgt>
<wgt id='1067'> +1.5286000e+02 </wgt>
<wgt id='1068'> +1.4729000e+02 </wgt>
<wgt id='1069'> +1.7280000e+02 </wgt>
<wgt id='1070'> +1.5183000e+02 </wgt>
<wgt id='1071'> +1.5810000e+02 </wgt>
<wgt id='1072'> +1.4619000e+02 </wgt>
<wgt id='1073'> +1.5037000e+02 </wgt>
<wgt id='1074'> +1.4677000e+02 </wgt>
<wgt id='1075'> +1.4744000e+02 </wgt>
<wgt id='1076'> +1.5193000e+02 </wgt>
<wgt id='1077'> +1.5171000e+02 </wgt>
<wgt id='1078'> +1.4933000e+02 </wgt>
<wgt id='1079'> +1.5302000e+02 </wgt>
<wgt id='1080'> +1.5995000e+02 </wgt>
<wgt id='1081'> +1.4828000e+02 </wgt>
<wgt id='1082'> +1.5574000e+02 </wgt>
<wgt id='1083'> +1.5570000e+02 </wgt>
<wgt id='1084'> +1.5801000e+02 </wgt>
<wgt id='1085'> +1.4937000e+02 </wgt>
<wgt id='1086'> +1.5302000e+02 </wgt>
<wgt id='1087'> +1.4967000e+02 </wgt>
<wgt id='1088'> +1.5572000e+02 </wgt>
<wgt id='1089'> +1.5014000e+02 </wgt>
<wgt id='1090'> +1.5236000e+02 </wgt>
<wgt id='1091'> +1.4221000e+02 </wgt>
<wgt id='1092'> +1.5601000e+02 </wgt>
<wgt id='1093'> +1.6129000e+02 </wgt>
<wgt id='1094'> +1.5390000e+02 </wgt>
<wgt id='1095'> +1.4796000e+02 </wgt>
<wgt id='1096'> +1.5674000e+02 </wgt>
<wgt id='1097'> +1.4732000e+02 </wgt>
<wgt id='1098'> +1.5634000e+02 </wgt>
<wgt id='1099'> +1.4933000e+02 </wgt>
<wgt id='1100'> +1.5368000e+02 </wgt>
<wgt id='1101'> +1.5145000e+02 </wgt>
<wgt id='1102'> +1.4266000e+02 </wgt>
<wgt id='1103'> +1.4754000e+02 </wgt>
<wgt id='1104'> +1.5534000e+02 </wgt>
<wgt id='1105'> +1.5146096e+02 </wgt>
<wgt id='1106'> +5.8641832e+01 </wgt>
<wgt id='1107'> +1.0172813e+02 </wgt>
<wgt id='1108'> +7.9994793e+01 </wgt>
<wgt id='1109'> +6.1943901e+01 </wgt>
<wgt id='1110'> +1.0745635e+02 </wgt>
<wgt id='1111'> +7.0389818e+01 </wgt>
<wgt id='1112'> +5.4506297e+01 </wgt>
<wgt id='1113'> +9.4554065e+01 </wgt>
<wgt id='1114'> +8.1528985e+01 </wgt>
<wgt id='1115'> +8.1862691e+01 </wgt>
<wgt id='1116'> +8.2233365e+01 </wgt>
<wgt id='1117'> +7.7351357e+01 </wgt>
<wgt id='1118'> +7.8065043e+01 </wgt>
<wgt id='1119'> +8.0877659e+01 </wgt>
<wgt id='1120'> +8.5346116e+01 </wgt>
<wgt id='1121'> +8.0950182e+01 </wgt>
<wgt id='1122'> +7.9881481e+01 </wgt>
<wgt id='1123'> +8.4483761e+01 </wgt>
<wgt id='1124'> +7.6821902e+01 </wgt>
<wgt id='1125'> +7.8379421e+01 </wgt>
<wgt id='1126'> +8.2085156e+01 </wgt>
<wgt id='1127'> +7.9648839e+01 </wgt>
<wgt id='1128'> +8.0898989e+01 </wgt>
<wgt id='1129'> +8.4277740e+01 </wgt>
<wgt id='1130'> +8.2172409e+01 </wgt>
<wgt id='1131'> +8.2865233e+01 </wgt>
<wgt id='1132'> +8.4020544e+01 </wgt>
<wgt id='1133'> +8.2336121e+01 </wgt>
<wgt id='1134'> +8.0612362e+01 </wgt>
<wgt id='1135'> +8.1868252e+01 </wgt>
<wgt id='1136'> +8.4441700e+01 </wgt>
<wgt id='1137'> +8.4713499e+01 </wgt>
<wgt id='1138'> +8.0398993e+01 </wgt>
<wgt id='1139'> +8.4356515e+01 </wgt>
<wgt id='1140'> +8.0687721e+01 </wgt>
<wgt id='1141'> +8.0935967e+01 </wgt>
<wgt id='1142'> +8.2775452e+01 </wgt>
<wgt id='1143'> +8.0320500e+01 </wgt>
<wgt id='1144'> +8.2331218e+01 </wgt>
<wgt id='1145'> +7.9959824e+01 </wgt>
<wgt id='1146'> +8.2698396e+01 </wgt>
<wgt id='1147'> +8.6428672e+01 </wgt>
<wgt id='1148'> +8.0315065e+01 </wgt>
<wgt id='1149'> +8.0668431e+01 </wgt>
<wgt id='1150'> +8.4497410e+01 </wgt>
<wgt id='1151'> +8.2033919e+01 </wgt>
<wgt id='1152'> +7.9790199e+01 </wgt>
<wgt id='1153'> +7.7289502e+01 </wgt>
<wgt id='1154'> +8.0437217e+01 </wgt>
<wgt id='1155'> +7.9348042e+01 </wgt>
<wgt id='1156'> +8.3112373e+01 </wgt>
<wgt id='1157'> +8.1774232e+01 </wgt>
<wgt id='1158'> +7.9179607e+01 </wgt>
<wgt id='1159'> +7.6288768e+01 </wgt>
<wgt id='1160'> +8.2191869e+01 </wgt>
<wgt id='1161'> +8.5907482e+01 </wgt>
<wgt id='1162'> +7.7357330e+01 </wgt>
<wgt id='1163'> +8.2873732e+01 </wgt>
<wgt id='1164'> +8.2104546e+01 </wgt>
<wgt id='1165'> +7.8547784e+01 </wgt>
<wgt id='1166'> +8.3657658e+01 </wgt>
<wgt id='1167'> +8.3653137e+01 </wgt>
<wgt id='1168'> +8.3493692e+01 </wgt>
<wgt id='1169'> +7.9149673e+01 </wgt>
<wgt id='1170'> +8.1728136e+01 </wgt>
<wgt id='1171'> +8.5106417e+01 </wgt>
<wgt id='1172'> +8.4850241e+01 </wgt>
<wgt id='1173'> +8.1920006e+01 </wgt>
<wgt id='1174'> +8.2889335e+01 </wgt>
<wgt id='1175'> +8.3904205e+01 </wgt>
<wgt id='1176'> +8.4197476e+01 </wgt>
<wgt id='1177'> +8.1199124e+01 </wgt>
<wgt id='1178'> +7.9029077e+01 </wgt>
<wgt id='1179'> +8.4565118e+01 </wgt>
<wgt id='1180'> +7.9149650e+01 </wgt>
<wgt id='1181'> +7.9085053e+01 </wgt>
<wgt id='1182'> +8.3280059e+01 </wgt>
<wgt id='1183'> +8.2780793e+01 </wgt>
<wgt id='1184'> +8.1351145e+01 </wgt>
<wgt id='1185'> +8.1728547e+01 </wgt>
<wgt id='1186'> +7.7165029e+01 </wgt>
<wgt id='1187'> +8.2376107e+01 </wgt>
<wgt id='1188'> +8.0020143e+01 </wgt>
<wgt id='1189'> +8.0739021e+01 </wgt>
<wgt id='1190'> +7.9898855e+01 </wgt>
<wgt id='1191'> +8.2732738e+01 </wgt>
<wgt id='1192'> +8.5636532e+01 </wgt>
<wgt id='1193'> +8.4174742e+01 </wgt>
<wgt id='1194'> +7.7430134e+01 </wgt>
<wgt id='1195'> +8.3587466e+01 </wgt>
<wgt id='1196'> +8.2172409e+01 </wgt>
<wgt id='1197'> +7.6112629e+01 </wgt>
<wgt id='1198'> +8.0854054e+01 </wgt>
<wgt id='1199'> +8.2554925e+01 </wgt>
<wgt id='1200'> +8.3493097e+01 </wgt>
<wgt id='1201'> +8.4273898e+01 </wgt>
<wgt id='1202'> +8.1293239e+01 </wgt>
<wgt id='1203'> +7.4581661e+01 </wgt>
<wgt id='1204'> +8.2660616e+01 </wgt>
<wgt id='1205'> +8.1993802e+01 </wgt>
<wgt id='1206'> +8.0131862e+01 </wgt>
<wgt id='1207'> +8.0008965e+01 </wgt>
<wgt id='1208'> +8.3223911e+01 </wgt>
<wgt id='1209'> +8.0766960e+01 </wgt>
<wgt id='1210'> +8.4023752e+01 </wgt>
<wgt id='1211'> +7.8179747e+01 </wgt>
<wgt id='1212'> +8.0917294e+01 </wgt>
<wgt id='1213'> +8.3773308e+01 </wgt>
<wgt id='1214'> +8.0410912e+01 </wgt>
<wgt id='1215'> +7.9128754e+01 </wgt>
<wgt id='1216'> +7.8989797e+01 </wgt>
<wgt id='1217'> +7.9172757e+01 </wgt>
<wgt id='1218'> +7.8851268e+01 </wgt>
<wgt id='1219'> +7.9023973e+01 </wgt>
<wgt id='1220'> +7.9167818e+01 </wgt>
<wgt id='1221'> +7.9195854e+01 </wgt>
<wgt id='1222'> +7.8876556e+01 </wgt>
<wgt id='1223'> +7.9392800e+01 </wgt>
<wgt id='1224'> +7.9523906e+01 </wgt>
<wgt id='1225'> +7.9251200e+01 </wgt>
<wgt id='1226'> +7.8962718e+01 </wgt>
<wgt id='1227'> +7.8800134e+01 </wgt>
<wgt id='1228'> +7.8861705e+01 </wgt>
<wgt id='1229'> +7.9442054e+01 </wgt>
<wgt id='1230'> +7.8746952e+01 </wgt>
<wgt id='1231'> +7.8962917e+01 </wgt>
<wgt id='1232'> +7.9678531e+01 </wgt>
<wgt id='1233'> +7.8716958e+01 </wgt>
<wgt id='1234'> +7.9087853e+01 </wgt>
<wgt id='1235'> +7.9017823e+01 </wgt>
<wgt id='1236'> +7.9003919e+01 </wgt>
<wgt id='1237'> +7.9037571e+01 </wgt>
<wgt id='1238'> +7.8825961e+01 </wgt>
<wgt id='1239'> +7.8473422e+01 </wgt>
<wgt id='1240'> +7.9485909e+01 </wgt>
<wgt id='1241'> +7.8986960e+01 </wgt>
<wgt id='1242'> +7.9126734e+01 </wgt>
<wgt id='1243'> +7.8728911e+01 </wgt>
<wgt id='1244'> +7.9325483e+01 </wgt>
<wgt id='1245'> +7.9383558e+01 </wgt>
<wgt id='1246'> +7.7597418e+01 </wgt>
<wgt id='1247'> +7.8866639e+01 </wgt>
<wgt id='1248'> +7.9287793e+01 </wgt>
<wgt id='1249'> +7.8973737e+01 </wgt>
<wgt id='1250'> +7.8907920e+01 </wgt>
<wgt id='1251'> +7.9372518e+01 </wgt>
<wgt id='1252'> +7.9009228e+01 </wgt>
<wgt id='1253'> +7.8713366e+01 </wgt>
<wgt id='1254'> +7.8941881e+01 </wgt>
<wgt id='1255'> +7.9015461e+01 </wgt>
<wgt id='1256'> +7.8765891e+01 </wgt>
<wgt id='1257'> +7.9230304e+01 </wgt>
<wgt id='1258'> +7.8839705e+01 </wgt>
<wgt id='1259'> +7.8971597e+01 </wgt>
<wgt id='1260'> +7.9057562e+01 </wgt>
<wgt id='1261'> +7.9135462e+01 </wgt>
<wgt id='1262'> +7.8926612e+01 </wgt>
<wgt id='1263'> +7.8943082e+01 </wgt>
<wgt id='1264'> +7.9287057e+01 </wgt>
<wgt id='1265'> +7.8713407e+01 </wgt>
<wgt id='1266'> +7.8876182e+01 </wgt>
<wgt id='1267'> +7.9431317e+01 </wgt>
<wgt id='1268'> +7.9041092e+01 </wgt>
<wgt id='1269'> +7.9372778e+01 </wgt>
<wgt id='1270'> +7.9320828e+01 </wgt>
<wgt id='1271'> +7.8870029e+01 </wgt>
<wgt id='1272'> +7.9218060e+01 </wgt>
<wgt id='1273'> +7.8863578e+01 </wgt>
<wgt id='1274'> +7.9006909e+01 </wgt>
<wgt id='1275'> +7.8770627e+01 </wgt>
<wgt id='1276'> +7.9275652e+01 </wgt>
<wgt id='1277'> +7.9023435e+01 </wgt>
<wgt id='1278'> +7.9183857e+01 </wgt>
<wgt id='1279'> +7.8911356e+01 </wgt>
<wgt id='1280'> +7.9263226e+01 </wgt>
<wgt id='1281'> +7.8814886e+01 </wgt>
<wgt id='1282'> +7.8913476e+01 </wgt>
<wgt id='1283'> +7.9124022e+01 </wgt>
<wgt id='1284'> +7.8895588e+01 </wgt>
<wgt id='1285'> +7.8964168e+01 </wgt>
<wgt id='1286'> +7.9115232e+01 </wgt>
<wgt id='1287'> +7.9112171e+01 </wgt>
<wgt id='1288'> +7.9135734e+01 </wgt>
<wgt id='1289'> +7.9069863e+01 </wgt>
<wgt id='1290'> +7.8858039e+01 </wgt>
<wgt id='1291'> +7.8858701e+01 </wgt>
<wgt id='1292'> +7.8825218e+01 </wgt>
<wgt id='1293'> +7.9089766e+01 </wgt>
<wgt id='1294'> +7.8925259e+01 </wgt>
<wgt id='1295'> +7.9008002e+01 </wgt>
<wgt id='1296'> +7.8982905e+01 </wgt>
<wgt id='1297'> +7.8992316e+01 </wgt>
<wgt id='1298'> +7.9057473e+01 </wgt>
<wgt id='1299'> +7.8977148e+01 </wgt>
<wgt id='1300'> +7.9035991e+01 </wgt>
<wgt id='1301'> +7.8982978e+01 </wgt>
<wgt id='1302'> +7.9019706e+01 </wgt>
<wgt id='1303'> +7.8914224e+01 </wgt>
<wgt id='1304'> +7.9053046e+01 </wgt>
<wgt id='1305'> +7.9037689e+01 </wgt>
<wgt id='1306'> +7.8938969e+01 </wgt>
<wgt id='1307'> +7.9098115e+01 </wgt>
<wgt id='1308'> +7.8990001e+01 </wgt>
<wgt id='1309'> +7.9073037e+01 </wgt>
<wgt id='1310'> +7.8982655e+01 </wgt>
<wgt id='1311'> +7.9089179e+01 </wgt>
<wgt id='1312'> +7.8946452e+01 </wgt>
<wgt id='1313'> +7.9021553e+01 </wgt>
<wgt id='1314'> +7.8982342e+01 </wgt>
<wgt id='1315'> +7.9022041e+01 </wgt>
<wgt id='1316'> +7.9013551e+01 </wgt>
<wgt id='1317'> +7.5139295e+01 </wgt>
<wgt id='1318'> +8.3093905e+01 </wgt>
<wgt id='1319'> +7.8809230e+01 </wgt>
<wgt id='1320'> +7.4274237e+01 </wgt>
<wgt id='1321'> +7.4375372e+01 </wgt>
<wgt id='1322'> +7.2008419e+01 </wgt>
<wgt id='1323'> +7.5733363e+01 </wgt>
<wgt id='1324'> +7.4808487e+01 </wgt>
<wgt id='1325'> +7.5950835e+01 </wgt>
<wgt id='1326'> +7.3358658e+01 </wgt>
<wgt id='1327'> +7.5448305e+01 </wgt>
<wgt id='1328'> +7.4553477e+01 </wgt>
<wgt id='1329'> +7.5394655e+01 </wgt>
<wgt id='1330'> +7.2462147e+01 </wgt>
<wgt id='1331'> +7.1363073e+01 </wgt>
<wgt id='1332'> +7.6443952e+01 </wgt>
<wgt id='1333'> +7.1348354e+01 </wgt>
<wgt id='1334'> +7.6672342e+01 </wgt>
<wgt id='1335'> +7.4271822e+01 </wgt>
<wgt id='1336'> +7.3602808e+01 </wgt>
<wgt id='1337'> +7.6177474e+01 </wgt>
<wgt id='1338'> +7.2098999e+01 </wgt>
<wgt id='1339'> +7.5082791e+01 </wgt>
<wgt id='1340'> +7.3422881e+01 </wgt>
<wgt id='1341'> +7.4829917e+01 </wgt>
<wgt id='1342'> +7.3442114e+01 </wgt>
<wgt id='1343'> +7.4658686e+01 </wgt>
<wgt id='1344'> +7.3847840e+01 </wgt>
<wgt id='1345'> +7.4785019e+01 </wgt>
<wgt id='1346'> +7.4001497e+01 </wgt>
<wgt id='1347'> +7.4439364e+01 </wgt>
<wgt id='1348'> +7.4074168e+01 </wgt>
<wgt id='1349'> +7.3419719e+01 </wgt>
<wgt id='1350'> +7.4548289e+01 </wgt>
<wgt id='1351'> +7.3876726e+01 </wgt>
<wgt id='1352'> +7.4785720e+01 </wgt>
<wgt id='1353'> +7.3595108e+01 </wgt>
<wgt id='1354'> +7.5717887e+01 </wgt>
<wgt id='1355'> +7.6542618e+01 </wgt>
<wgt id='1356'> +7.2078247e+01 </wgt>
<wgt id='1357'> +7.4162222e+01 </wgt>
<wgt id='1358'> +7.4086649e+01 </wgt>
<wgt id='1359'> +7.3778300e+01 </wgt>
<wgt id='1360'> +7.4274276e+01 </wgt>
<wgt id='1361'> +7.3052748e+01 </wgt>
<wgt id='1362'> +7.5429080e+01 </wgt>
<wgt id='1363'> +7.4091212e+01 </wgt>
<wgt id='1364'> +7.4421351e+01 </wgt>
<wgt id='1365'> +7.4205056e+01 </wgt>
<wgt id='1366'> +7.4848057e+01 </wgt>
<wgt id='1367'> +7.3190025e+01 </wgt>
<wgt id='1368'> +7.6687922e+01 </wgt>
<wgt id='1369'> +7.4376904e+01 </wgt>
<wgt id='1370'> +7.6049427e+01 </wgt>
<wgt id='1371'> +7.4449500e+01 </wgt>
<wgt id='1372'> +7.3227805e+01 </wgt>
<wgt id='1373'> +7.3091389e+01 </wgt>
<wgt id='1374'> +7.3558744e+01 </wgt>
<wgt id='1375'> +7.3778494e+01 </wgt>
<wgt id='1376'> +7.5265442e+01 </wgt>
<wgt id='1377'> +7.0677710e+01 </wgt>
<wgt id='1378'> +7.7827274e+01 </wgt>
<wgt id='1379'> +7.6611839e+01 </wgt>
<wgt id='1380'> +7.2939093e+01 </wgt>
<wgt id='1381'> +8.0349971e+01 </wgt>
<wgt id='1382'> +6.6293822e+01 </wgt>
<wgt id='1383'> +7.7204476e+01 </wgt>
<wgt id='1384'> +8.2711959e+01 </wgt>
<wgt id='1385'> +1.0326932e+02 </wgt>
<wgt id='1386'> +1.0302012e+02 </wgt>
<wgt id='1387'> +1.0354266e+02 </wgt>
<wgt id='1388'> +1.0287603e+02 </wgt>
<wgt id='1389'> +1.0395643e+02 </wgt>
<wgt id='1390'> +1.0356502e+02 </wgt>
<wgt id='1391'> +1.0292192e+02 </wgt>
<wgt id='1392'> +1.0329090e+02 </wgt>
<wgt id='1393'> +1.0326082e+02 </wgt>
<wgt id='1394'> +1.0248054e+02 </wgt>
<wgt id='1395'> +1.0425031e+02 </wgt>
<wgt id='1396'> +1.0470362e+02 </wgt>
<wgt id='1397'> +1.0252601e+02 </wgt>
<wgt id='1398'> +1.0253230e+02 </wgt>
<wgt id='1399'> +1.0381140e+02 </wgt>
<wgt id='1400'> +1.0416495e+02 </wgt>
<wgt id='1401'> +1.0258939e+02 </wgt>
<wgt id='1402'> +1.0322399e+02 </wgt>
<wgt id='1403'> +1.0329215e+02 </wgt>
<wgt id='1404'> +1.0187523e+02 </wgt>
<wgt id='1405'> +1.0398820e+02 </wgt>
<wgt id='1406'> +1.0315647e+02 </wgt>
<wgt id='1407'> +1.0345476e+02 </wgt>
<wgt id='1408'> +1.0275024e+02 </wgt>
<wgt id='1409'> +1.0432886e+02 </wgt>
<wgt id='1410'> +1.0308093e+02 </wgt>
<wgt id='1411'> +1.0380767e+02 </wgt>
<wgt id='1412'> +1.0388233e+02 </wgt>
<wgt id='1413'> +1.0217291e+02 </wgt>
<wgt id='1414'> +1.0267101e+02 </wgt>
<wgt id='1415'> +1.0376205e+02 </wgt>
<wgt id='1416'> +1.0257687e+02 </wgt>
<wgt id='1417'> +1.0363777e+02 </wgt>
<wgt id='1418'> +1.0278599e+02 </wgt>
<wgt id='1419'> +1.0416125e+02 </wgt>
<wgt id='1420'> +1.0378333e+02 </wgt>
<wgt id='1421'> +1.0435610e+02 </wgt>
<wgt id='1422'> +1.0416061e+02 </wgt>
<wgt id='1423'> +1.0226543e+02 </wgt>
<wgt id='1424'> +1.0409207e+02 </wgt>
<wgt id='1425'> +1.0204907e+02 </wgt>
<wgt id='1426'> +1.0408101e+02 </wgt>
<wgt id='1427'> +1.0331013e+02 </wgt>
<wgt id='1428'> +1.0321318e+02 </wgt>
<wgt id='1429'> +1.0285954e+02 </wgt>
<wgt id='1430'> +1.0409912e+02 </wgt>
<wgt id='1431'> +1.0350509e+02 </wgt>
<wgt id='1432'> +1.0365219e+02 </wgt>
<wgt id='1433'> +1.0407480e+02 </wgt>
<wgt id='1434'> +1.0350193e+02 </wgt>
<wgt id='1435'> +1.0279591e+02 </wgt>
<wgt id='1436'> +5.7164180e+01 </wgt>
<wgt id='1437'> +5.7156236e+01 </wgt>
<wgt id='1438'> +5.7216378e+01 </wgt>
<wgt id='1439'> +5.7166069e+01 </wgt>
<wgt id='1440'> +5.7056275e+01 </wgt>
<wgt id='1441'> +5.7497342e+01 </wgt>
<wgt id='1442'> +5.6896492e+01 </wgt>
<wgt id='1443'> +5.7088545e+01 </wgt>
<wgt id='1444'> +5.7297260e+01 </wgt>
<wgt id='1445'> +5.6119678e+01 </wgt>
<wgt id='1446'> +5.7925304e+01 </wgt>
<wgt id='1447'> +5.6961235e+01 </wgt>
<wgt id='1448'> +5.7107139e+01 </wgt>
<wgt id='1449'> +5.7307749e+01 </wgt>
<wgt id='1450'> +5.7218829e+01 </wgt>
<wgt id='1451'> +5.7421254e+01 </wgt>
<wgt id='1452'> +5.6991437e+01 </wgt>
<wgt id='1453'> +5.7359262e+01 </wgt>
<wgt id='1454'> +5.7341337e+01 </wgt>
<wgt id='1455'> +5.7333120e+01 </wgt>
<wgt id='1456'> +5.7145087e+01 </wgt>
<wgt id='1457'> +5.7633137e+01 </wgt>
<wgt id='1458'> +5.7702984e+01 </wgt>
<wgt id='1459'> +5.6986950e+01 </wgt>
<wgt id='1460'> +5.7120455e+01 </wgt>
<wgt id='1461'> +5.7070109e+01 </wgt>
<wgt id='1462'> +5.6137745e+01 </wgt>
<wgt id='1463'> +5.8294142e+01 </wgt>
<wgt id='1464'> +5.6575743e+01 </wgt>
<wgt id='1465'> +7.4451202e+01 </wgt>
<wgt id='1466'> +7.5743920e+01 </wgt>
<wgt id='1467'> +7.5943418e+01 </wgt>
<wgt id='1468'> +7.5701411e+01 </wgt>
<wgt id='1469'> +7.6305036e+01 </wgt>
<wgt id='1470'> +7.5650632e+01 </wgt>
<wgt id='1471'> +7.5583144e+01 </wgt>
<wgt id='1472'> +7.5416306e+01 </wgt>
<wgt id='1473'> +7.5597661e+01 </wgt>
<wgt id='1474'> +7.6402682e+01 </wgt>
<wgt id='1475'> +7.6531440e+01 </wgt>
<wgt id='1476'> +7.6743719e+01 </wgt>
<wgt id='1477'> +7.5172135e+01 </wgt>
<wgt id='1478'> +7.5401498e+01 </wgt>
<wgt id='1479'> +7.4076388e+01 </wgt>
<wgt id='1480'> +7.5757785e+01 </wgt>
<wgt id='1481'> +7.5305864e+01 </wgt>
<wgt id='1482'> +7.5440093e+01 </wgt>
<wgt id='1483'> +7.5691984e+01 </wgt>
<wgt id='1484'> +7.6633603e+01 </wgt>
<wgt id='1485'> +7.5475343e+01 </wgt>
<wgt id='1486'> +7.6605754e+01 </wgt>
<wgt id='1487'> +7.6006201e+01 </wgt>
<wgt id='1488'> +7.5892519e+01 </wgt>
<wgt id='1489'> +7.6590490e+01 </wgt>
<wgt id='1490'> +7.5253312e+01 </wgt>
<wgt id='1491'> +7.5551923e+01 </wgt>
<wgt id='1492'> +7.5504587e+01 </wgt>
<wgt id='1493'> +7.5987605e+01 </wgt>
<wgt id='1494'> +7.5770884e+01 </wgt>
<wgt id='1495'> +7.5456247e+01 </wgt>
<wgt id='1496'> +7.5684991e+01 </wgt>
<wgt id='1497'> +7.5388292e+01 </wgt>
<wgt id='1498'> +7.6125000e+01 </wgt>
<wgt id='1499'> +7.5781311e+01 </wgt>
<wgt id='1500'> +7.5200160e+01 </wgt>
<wgt id='1501'> +7.6329270e+01 </wgt>
<wgt id='1502'> +7.5674363e+01 </wgt>
<wgt id='1503'> +7.5847852e+01 </wgt>
<wgt id='1504'> +7.5421917e+01 </wgt>
<wgt id='1505'> +7.5451202e+01 </wgt>
<wgt id='1506'> +7.5353928e+01 </wgt>
<wgt id='1507'> +7.5950091e+01 </wgt>
<wgt id='1508'> +7.5605765e+01 </wgt>
<wgt id='1509'> +7.5678676e+01 </wgt>
<wgt id='1510'> +7.5920519e+01 </wgt>
<wgt id='1511'> +7.5500706e+01 </wgt>
<wgt id='1512'> +7.6108433e+01 </wgt>
<wgt id='1513'> +7.5473384e+01 </wgt>
<wgt id='1514'> +7.5903622e+01 </wgt>
<wgt id='1515'> +7.5625083e+01 </wgt>
<wgt id='1516'> +7.5513147e+01 </wgt>
<wgt id='1517'> +7.5638585e+01 </wgt>
<wgt id='1518'> +7.5657134e+01 </wgt>
<wgt id='1519'> +7.5613118e+01 </wgt>
<wgt id='1520'> +7.5981760e+01 </wgt>
<wgt id='1521'> +7.5784518e+01 </wgt>
<wgt id='1522'> +7.5732835e+01 </wgt>
<wgt id='1523'> +7.5820442e+01 </wgt>
<wgt id='1524'> +7.6010649e+01 </wgt>
<wgt id='1525'> +7.5851054e+01 </wgt>
<wgt id='1526'> +7.5690047e+01 </wgt>
<wgt id='1527'> +7.5824679e+01 </wgt>
<wgt id='1528'> +7.5758276e+01 </wgt>
<wgt id='1529'> +7.5714515e+01 </wgt>
<wgt id='1530'> +7.5830333e+01 </wgt>
<wgt id='1531'> +7.5680036e+01 </wgt>
<wgt id='1532'> +7.5794579e+01 </wgt>
<wgt id='1533'> +7.5683730e+01 </wgt>
<wgt id='1534'> +7.5769150e+01 </wgt>
<wgt id='1535'> +7.5701320e+01 </wgt>
<wgt id='1536'> +7.5686564e+01 </wgt>
<wgt id='1537'> +7.5735837e+01 </wgt>
<wgt id='1538'> +7.5688806e+01 </wgt>
<wgt id='1539'> +7.5816442e+01 </wgt>
<wgt id='1540'> +7.5739554e+01 </wgt>
<wgt id='1541'> +7.5733829e+01 </wgt>
<wgt id='1542'> +7.5704155e+01 </wgt>
<wgt id='1543'> +7.5713341e+01 </wgt>
<wgt id='1544'> +7.5711273e+01 </wgt>
<wgt id='1545'> +7.5787418e+01 </wgt>
<wgt id='1546'> +7.5720055e+01 </wgt>
<wgt id='1547'> +7.5780897e+01 </wgt>
<wgt id='1548'> +7.5719350e+01 </wgt>
<wgt id='1549'> +7.5788997e+01 </wgt>
<wgt id='1550'> +7.5778341e+01 </wgt>
<wgt id='1551'> +7.5803709e+01 </wgt>
<wgt id='1552'> +7.5801164e+01 </wgt>
<wgt id='1553'> +7.5780580e+01 </wgt>
<wgt id='1554'> +7.5743207e+01 </wgt>
<wgt id='1555'> +7.5736211e+01 </wgt>
<wgt id='1556'> +7.5768989e+01 </wgt>
<wgt id='1557'> +7.5767367e+01 </wgt>
<wgt id='1558'> +7.5761672e+01 </wgt>
<wgt id='1559'> +7.5757386e+01 </wgt>
<wgt id='1560'> +7.5762014e+01 </wgt>
<wgt id='1561'> +7.5773045e+01 </wgt>
<wgt id='1562'> +7.5739223e+01 </wgt>
<wgt id='1563'> +7.5741296e+01 </wgt>
<wgt id='1564'> +7.5771579e+01 </wgt>
<wgt id='1565'> +7.5781227e+01 </wgt>
<wgt id='1566'> +7.5740070e+01 </wgt>
<wgt id='1567'> +7.2852779e+01 </wgt>
<wgt id='1568'> +7.8501990e+01 </wgt>
<wgt id='1569'> +7.9538303e+01 </wgt>
<wgt id='1570'> +8.0129599e+01 </wgt>
<wgt id='1571'> +7.9901479e+01 </wgt>
<wgt id='1572'> +7.9035115e+01 </wgt>
<wgt id='1573'> +7.9759086e+01 </wgt>
<wgt id='1574'> +8.0006485e+01 </wgt>
<wgt id='1575'> +7.9603974e+01 </wgt>
<wgt id='1576'> +7.9715501e+01 </wgt>
<wgt id='1577'> +7.9529613e+01 </wgt>
<wgt id='1578'> +7.8675047e+01 </wgt>
<wgt id='1579'> +7.9497973e+01 </wgt>
<wgt id='1580'> +7.9976988e+01 </wgt>
<wgt id='1581'> +7.9567931e+01 </wgt>
<wgt id='1582'> +7.9191879e+01 </wgt>
<wgt id='1583'> +7.9262078e+01 </wgt>
<wgt id='1584'> +8.2407806e+01 </wgt>
<wgt id='1585'> +7.8787320e+01 </wgt>
<wgt id='1586'> +7.9849113e+01 </wgt>
<wgt id='1587'> +7.9621780e+01 </wgt>
<wgt id='1588'> +7.8761613e+01 </wgt>
<wgt id='1589'> +7.9347392e+01 </wgt>
<wgt id='1590'> +8.0044245e+01 </wgt>
<wgt id='1591'> +7.8560175e+01 </wgt>
<wgt id='1592'> +7.9853708e+01 </wgt>
<wgt id='1593'> +7.9818620e+01 </wgt>
<wgt id='1594'> +7.9717409e+01 </wgt>
<wgt id='1595'> +7.9579975e+01 </wgt>
<wgt id='1596'> +7.9361374e+01 </wgt>
<wgt id='1597'> +7.9194324e+01 </wgt>
<wgt id='1598'> +7.9222711e+01 </wgt>
<wgt id='1599'> +7.9768442e+01 </wgt>
<wgt id='1600'> +7.8928368e+01 </wgt>
<wgt id='1601'> +8.0041502e+01 </wgt>
<wgt id='1602'> +7.9465437e+01 </wgt>
<wgt id='1603'> +7.9372597e+01 </wgt>
<wgt id='1604'> +7.9569144e+01 </wgt>
<wgt id='1605'> +7.9521137e+01 </wgt>
<wgt id='1606'> +7.9997856e+01 </wgt>
<wgt id='1607'> +8.0171482e+01 </wgt>
<wgt id='1608'> +7.9799863e+01 </wgt>
<wgt id='1609'> +7.9712504e+01 </wgt>
<wgt id='1610'> +7.9346103e+01 </wgt>
<wgt id='1611'> +7.9357289e+01 </wgt>
<wgt id='1612'> +7.9514868e+01 </wgt>
<wgt id='1613'> +7.9273376e+01 </wgt>
<wgt id='1614'> +7.9748998e+01 </wgt>
<wgt id='1615'> +7.9036163e+01 </wgt>
<wgt id='1616'> +8.0038250e+01 </wgt>
<wgt id='1617'> +7.9721236e+01 </wgt>
<wgt id='1618'> +7.9378406e+01 </wgt>
<wgt id='1619'> +7.9431801e+01 </wgt>
<wgt id='1620'> +7.9466240e+01 </wgt>
<wgt id='1621'> +7.9424585e+01 </wgt>
<wgt id='1622'> +7.9752606e+01 </wgt>
<wgt id='1623'> +7.9454544e+01 </wgt>
<wgt id='1624'> +7.9436653e+01 </wgt>
<wgt id='1625'> +7.9576406e+01 </wgt>
<wgt id='1626'> +7.9706851e+01 </wgt>
<wgt id='1627'> +7.9463313e+01 </wgt>
<wgt id='1628'> +7.9289173e+01 </wgt>
<wgt id='1629'> +7.9554708e+01 </wgt>
<wgt id='1630'> +7.9502582e+01 </wgt>
<wgt id='1631'> +7.9668162e+01 </wgt>
<wgt id='1632'> +7.9556414e+01 </wgt>
<wgt id='1633'> +7.9597832e+01 </wgt>
<wgt id='1634'> +7.9550811e+01 </wgt>
<wgt id='1635'> +7.9575200e+01 </wgt>
<wgt id='1636'> +7.9593445e+01 </wgt>
<wgt id='1637'> +7.9485388e+01 </wgt>
<wgt id='1638'> +7.9570173e+01 </wgt>
<wgt id='1639'> +7.9546163e+01 </wgt>
<wgt id='1640'> +7.9680029e+01 </wgt>
<wgt id='1641'> +7.9549470e+01 </wgt>
<wgt id='1642'> +7.9566818e+01 </wgt>
<wgt id='1643'> +7.9556895e+01 </wgt>
<wgt id='1644'> +7.9549758e+01 </wgt>
<wgt id='1645'> +7.9484342e+01 </wgt>
<wgt id='1646'> +7.9537995e+01 </wgt>
<wgt id='1647'> +7.9557263e+01 </wgt>
<wgt id='1648'> +7.9619409e+01 </wgt>
<wgt id='1649'> +7.9575728e+01 </wgt>
<wgt id='1650'> +7.9587502e+01 </wgt>
<wgt id='1651'> +7.9553639e+01 </wgt>
<wgt id='1652'> +7.9556261e+01 </wgt>
<wgt id='1653'> +7.9568461e+01 </wgt>
<wgt id='1654'> +7.9481777e+01 </wgt>
<wgt id='1655'> +7.9555073e+01 </wgt>
<wgt id='1656'> +7.9505087e+01 </wgt>
<wgt id='1657'> +7.9484538e+01 </wgt>
<wgt id='1658'> +7.9548956e+01 </wgt>
<wgt id='1659'> +7.9590906e+01 </wgt>
<wgt id='1660'> +7.9504366e+01 </wgt>
<wgt id='1661'> +7.9540612e+01 </wgt>
<wgt id='1662'> +7.9565601e+01 </wgt>
<wgt id='1663'> +7.9515192e+01 </wgt>
<wgt id='1664'> +7.9578045e+01 </wgt>
<wgt id='1665'> +7.9528816e+01 </wgt>
<wgt id='1666'> +7.9539848e+01 </wgt>
<wgt id='1667'> +7.9550052e+01 </wgt>
<wgt id='1668'> +7.9542895e+01 </wgt>
<wgt id='1669'> +7.9532659e+01 </wgt>
<wgt id='1670'> +7.6307749e+01 </wgt>
<wgt id='1671'> +8.2350973e+01 </wgt>
<wgt id='1672'> +7.5786042e+01 </wgt>
<wgt id='1673'> +7.6539229e+01 </wgt>
<wgt id='1674'> +7.5469118e+01 </wgt>
<wgt id='1675'> +7.5829137e+01 </wgt>
<wgt id='1676'> +7.5926053e+01 </wgt>
<wgt id='1677'> +7.6381107e+01 </wgt>
<wgt id='1678'> +7.8432208e+01 </wgt>
<wgt id='1679'> +7.5776336e+01 </wgt>
<wgt id='1680'> +7.5899160e+01 </wgt>
<wgt id='1681'> +7.6372272e+01 </wgt>
<wgt id='1682'> +7.5893939e+01 </wgt>
<wgt id='1683'> +7.5249772e+01 </wgt>
<wgt id='1684'> +7.5687305e+01 </wgt>
<wgt id='1685'> +7.5813250e+01 </wgt>
<wgt id='1686'> +7.4531357e+01 </wgt>
<wgt id='1687'> +7.5862561e+01 </wgt>
<wgt id='1688'> +7.5787948e+01 </wgt>
<wgt id='1689'> +7.5400687e+01 </wgt>
<wgt id='1690'> +7.5685029e+01 </wgt>
<wgt id='1691'> +7.5798856e+01 </wgt>
<wgt id='1692'> +7.5763471e+01 </wgt>
<wgt id='1693'> +7.5842441e+01 </wgt>
<wgt id='1694'> +7.5768452e+01 </wgt>
<wgt id='1695'> +7.5794538e+01 </wgt>
<wgt id='1696'> +7.5715528e+01 </wgt>
<wgt id='1697'> +7.5853101e+01 </wgt>
<wgt id='1698'> +7.5592272e+01 </wgt>
<wgt id='1699'> +7.5898466e+01 </wgt>
<wgt id='1700'> +7.5873762e+01 </wgt>
<wgt id='1701'> +7.6139842e+01 </wgt>
<wgt id='1702'> +7.5766616e+01 </wgt>
<wgt id='1703'> +7.2852779e+01 </wgt>
<wgt id='1704'> +7.8501990e+01 </wgt>
<wgt id='1705'> +7.9538209e+01 </wgt>
<wgt id='1706'> +8.0514487e+01 </wgt>
<wgt id='1707'> +8.2453247e+01 </wgt>
<wgt id='1708'> +7.9448372e+01 </wgt>
<wgt id='1709'> +7.9901648e+01 </wgt>
<wgt id='1710'> +7.9158523e+01 </wgt>
<wgt id='1711'> +7.9556940e+01 </wgt>
<wgt id='1712'> +7.9291269e+01 </wgt>
<wgt id='1713'> +8.0053517e+01 </wgt>
<wgt id='1714'> +7.8676740e+01 </wgt>
<wgt id='1715'> +7.9853939e+01 </wgt>
<wgt id='1716'> +7.9569276e+01 </wgt>
<wgt id='1717'> +7.9583768e+01 </wgt>
<wgt id='1718'> +7.9595517e+01 </wgt>
<wgt id='1719'> +7.9637565e+01 </wgt>
<wgt id='1720'> +7.9837578e+01 </wgt>
<wgt id='1721'> +7.9738297e+01 </wgt>
<wgt id='1722'> +7.8869620e+01 </wgt>
<wgt id='1723'> +7.9554633e+01 </wgt>
<wgt id='1724'> +7.9788198e+01 </wgt>
<wgt id='1725'> +7.9144668e+01 </wgt>
<wgt id='1726'> +7.8551572e+01 </wgt>
<wgt id='1727'> +7.9656215e+01 </wgt>
<wgt id='1728'> +7.9463051e+01 </wgt>
<wgt id='1729'> +7.9565598e+01 </wgt>
<wgt id='1730'> +7.9286517e+01 </wgt>
<wgt id='1731'> +7.9252457e+01 </wgt>
<wgt id='1732'> +7.9745769e+01 </wgt>
<wgt id='1733'> +7.8969405e+01 </wgt>
<wgt id='1734'> +7.9893570e+01 </wgt>
<wgt id='1735'> +7.9396732e+01 </wgt>
<wgt id='1736'> +7.6307749e+01 </wgt>
<wgt id='1737'> +8.2350973e+01 </wgt>
<wgt id='1738'> +8.1456319e+01 </wgt>
<wgt id='1739'> +8.1576228e+01 </wgt>
<wgt id='1740'> +8.1337287e+01 </wgt>
<wgt id='1741'> +8.1491023e+01 </wgt>
<wgt id='1742'> +8.1421463e+01 </wgt>
<wgt id='1743'> +8.1459376e+01 </wgt>
<wgt id='1744'> +8.1452975e+01 </wgt>
<wgt id='1745'> +8.1167903e+01 </wgt>
<wgt id='1746'> +8.1737179e+01 </wgt>
<wgt id='1747'> +7.9894476e+01 </wgt>
<wgt id='1748'> +8.2997844e+01 </wgt>
<wgt id='1749'> +8.2326444e+01 </wgt>
<wgt id='1750'> +8.0536574e+01 </wgt>
<wgt id='1751'> +8.1634467e+01 </wgt>
<wgt id='1752'> +8.1273578e+01 </wgt>
<wgt id='1753'> +8.1515869e+01 </wgt>
<wgt id='1754'> +8.1522231e+01 </wgt>
<wgt id='1755'> +8.1019943e+01 </wgt>
<wgt id='1756'> +8.1734156e+01 </wgt>
<wgt id='1757'> +8.0186097e+01 </wgt>
<wgt id='1758'> +8.2693705e+01 </wgt>
<wgt id='1759'> +8.0120132e+01 </wgt>
<wgt id='1760'> +8.2693521e+01 </wgt>
<wgt id='1761'> +7.9477139e+01 </wgt>
<wgt id='1762'> +8.3408362e+01 </wgt>
<wgt id='1763'> +8.2893505e+01 </wgt>
<wgt id='1764'> +8.0082389e+01 </wgt>
<wgt id='1765'> +8.0688039e+01 </wgt>
<wgt id='1766'> +8.2286553e+01 </wgt>
<wgt id='1767'> +8.1456319e+01 </wgt>
<wgt id='1768'> +8.3604178e+01 </wgt>
<wgt id='1769'> +7.9356734e+01 </wgt>
<wgt id='1770'> +8.8254469e+01 </wgt>
<wgt id='1771'> +8.5550801e+01 </wgt>
<wgt id='1772'> +8.2548700e+01 </wgt>
<wgt id='1773'> +8.1036196e+01 </wgt>
<wgt id='1774'> +8.1359398e+01 </wgt>
<wgt id='1775'> +8.1558976e+01 </wgt>
<wgt id='1776'> +8.0946772e+01 </wgt>
<wgt id='1777'> +8.1983920e+01 </wgt>
<wgt id='1778'> +8.1146993e+01 </wgt>
<wgt id='1779'> +8.2168104e+01 </wgt>
<wgt id='1780'> +8.6054892e+01 </wgt>
<wgt id='1781'> +9.0265154e+01 </wgt>
<wgt id='1782'> +9.0416433e+01 </wgt>
<wgt id='1783'> +9.0141322e+01 </wgt>
<wgt id='1784'> +9.0321954e+01 </wgt>
<wgt id='1785'> +9.0234927e+01 </wgt>
<wgt id='1786'> +9.0307138e+01 </wgt>
<wgt id='1787'> +9.0249967e+01 </wgt>
<wgt id='1788'> +9.0029652e+01 </wgt>
<wgt id='1789'> +9.0512700e+01 </wgt>
<wgt id='1790'> +9.0105185e+01 </wgt>
<wgt id='1791'> +9.0440399e+01 </wgt>
<wgt id='1792'> +8.8392565e+01 </wgt>
<wgt id='1793'> +9.2146915e+01 </wgt>
<wgt id='1794'> +9.0642598e+01 </wgt>
<wgt id='1795'> +8.9920375e+01 </wgt>
<wgt id='1796'> +9.0250205e+01 </wgt>
<wgt id='1797'> +9.0523200e+01 </wgt>
<wgt id='1798'> +9.0200478e+01 </wgt>
<wgt id='1799'> +9.0330087e+01 </wgt>
<wgt id='1800'> +8.8739194e+01 </wgt>
<wgt id='1801'> +9.1717979e+01 </wgt>
<wgt id='1802'> +9.0223192e+01 </wgt>
<wgt id='1803'> +9.0236053e+01 </wgt>
<wgt id='1804'> +9.1349964e+01 </wgt>
<wgt id='1805'> +8.9268307e+01 </wgt>
<wgt id='1806'> +8.9885065e+01 </wgt>
<wgt id='1807'> +9.0863123e+01 </wgt>
<wgt id='1808'> +8.9177809e+01 </wgt>
<wgt id='1809'> +9.1565025e+01 </wgt>
<wgt id='1810'> +9.0127823e+01 </wgt>
<wgt id='1811'> +9.1918401e+01 </wgt>
<wgt id='1812'> +8.8203866e+01 </wgt>
<wgt id='1813'> +9.4339451e+01 </wgt>
<wgt id='1814'> +9.1038689e+01 </wgt>
<wgt id='1815'> +9.3613977e+01 </wgt>
<wgt id='1816'> +8.7124975e+01 </wgt>
<wgt id='1817'> +9.0043519e+01 </wgt>
<wgt id='1818'> +9.0565268e+01 </wgt>
<wgt id='1819'> +8.6829204e+01 </wgt>
<wgt id='1820'> +9.2869023e+01 </wgt>
<wgt id='1821'> +8.6573871e+01 </wgt>
<wgt id='1822'> +9.2227713e+01 </wgt>
<wgt id='1823'> +8.6733398e+01 </wgt>
<wgt id='1824'> +7.3721714e+01 </wgt>
<wgt id='1825'> +7.3702260e+01 </wgt>
<wgt id='1826'> +7.3682507e+01 </wgt>
<wgt id='1827'> +7.3663039e+01 </wgt>
<wgt id='1828'> +7.3643294e+01 </wgt>
<wgt id='1829'> +7.3623402e+01 </wgt>
<wgt id='1830'> +7.3603717e+01 </wgt>
<wgt id='1831'> +7.3584174e+01 </wgt>
<wgt id='1832'> +7.3564487e+01 </wgt>
<wgt id='1833'> +7.3544817e+01 </wgt>
<wgt id='1834'> +7.3525098e+01 </wgt>
<wgt id='1835'> +7.3505647e+01 </wgt>
<wgt id='1836'> +7.3485510e+01 </wgt>
<wgt id='1837'> +7.3466023e+01 </wgt>
<wgt id='1838'> +7.3446350e+01 </wgt>
<wgt id='1839'> +7.3426903e+01 </wgt>
<wgt id='1840'> +7.3407478e+01 </wgt>
<wgt id='1841'> +7.3387766e+01 </wgt>
<wgt id='1842'> +7.3367829e+01 </wgt>
<wgt id='1843'> +7.3347724e+01 </wgt>
<wgt id='1844'> +7.3328287e+01 </wgt>
<wgt id='1845'> +7.3308627e+01 </wgt>
<wgt id='1846'> +7.3289108e+01 </wgt>
<wgt id='1847'> +7.3269444e+01 </wgt>
<wgt id='1848'> +7.3250288e+01 </wgt>
<wgt id='1849'> +7.3230199e+01 </wgt>
<wgt id='1850'> +7.3210774e+01 </wgt>
<wgt id='1851'> +7.3190597e+01 </wgt>
<wgt id='1852'> +7.3171143e+01 </wgt>
<wgt id='1853'> +7.3151503e+01 </wgt>
<wgt id='1854'> +7.3132103e+01 </wgt>
<wgt id='1855'> +7.9243973e+01 </wgt>
<wgt id='1856'> +7.9816268e+01 </wgt>
<wgt id='1857'> +7.9601112e+01 </wgt>
<wgt id='1858'> +7.8743724e+01 </wgt>
<wgt id='1859'> +7.9460421e+01 </wgt>
<wgt id='1860'> +7.9711307e+01 </wgt>
<wgt id='1861'> +7.9321352e+01 </wgt>
<wgt id='1862'> +7.9430993e+01 </wgt>
<wgt id='1863'> +7.9235441e+01 </wgt>
<wgt id='1864'> +7.8385175e+01 </wgt>
<wgt id='1865'> +7.9201101e+01 </wgt>
<wgt id='1866'> +7.9698245e+01 </wgt>
<wgt id='1867'> +7.9282391e+01 </wgt>
<wgt id='1868'> +7.8906874e+01 </wgt>
<wgt id='1869'> +7.8965984e+01 </wgt>
<wgt id='1870'> +8.2082163e+01 </wgt>
<wgt id='1871'> +7.8512316e+01 </wgt>
<wgt id='1872'> +7.9546057e+01 </wgt>
<wgt id='1873'> +7.9322847e+01 </wgt>
<wgt id='1874'> +7.8480121e+01 </wgt>
<wgt id='1875'> +7.9067406e+01 </wgt>
<wgt id='1876'> +7.9740471e+01 </wgt>
<wgt id='1877'> +7.8266054e+01 </wgt>
<wgt id='1878'> +7.9564294e+01 </wgt>
<wgt id='1879'> +7.9514737e+01 </wgt>
<wgt id='1880'> +7.9409245e+01 </wgt>
<wgt id='1881'> +7.9273077e+01 </wgt>
<wgt id='1882'> +7.9081979e+01 </wgt>
<wgt id='1883'> +7.8907128e+01 </wgt>
<wgt id='1884'> +7.8923190e+01 </wgt>
<wgt id='1885'> +7.9466862e+01 </wgt>
<wgt id='1886'> +7.8651035e+01 </wgt>
<wgt id='1887'> +7.9740523e+01 </wgt>
<wgt id='1888'> +7.9167128e+01 </wgt>
<wgt id='1889'> +7.9079090e+01 </wgt>
<wgt id='1890'> +7.9271396e+01 </wgt>
<wgt id='1891'> +7.9227161e+01 </wgt>
<wgt id='1892'> +7.9702180e+01 </wgt>
<wgt id='1893'> +7.9871796e+01 </wgt>
<wgt id='1894'> +7.9499658e+01 </wgt>
<wgt id='1895'> +7.9417824e+01 </wgt>
<wgt id='1896'> +7.9048963e+01 </wgt>
<wgt id='1897'> +7.9061446e+01 </wgt>
<wgt id='1898'> +7.9228348e+01 </wgt>
<wgt id='1899'> +7.8978850e+01 </wgt>
<wgt id='1900'> +7.9451811e+01 </wgt>
<wgt id='1901'> +7.8747655e+01 </wgt>
<wgt id='1902'> +7.9739417e+01 </wgt>
<wgt id='1903'> +7.9429049e+01 </wgt>
<wgt id='1904'> +7.9083549e+01 </wgt>
<wgt id='1905'> +7.9138917e+01 </wgt>
<wgt id='1906'> +7.9170874e+01 </wgt>
<wgt id='1907'> +7.9130195e+01 </wgt>
<wgt id='1908'> +7.9457982e+01 </wgt>
<wgt id='1909'> +7.9162320e+01 </wgt>
<wgt id='1910'> +7.9144505e+01 </wgt>
<wgt id='1911'> +7.9277654e+01 </wgt>
<wgt id='1912'> +7.9411877e+01 </wgt>
<wgt id='1913'> +7.9173367e+01 </wgt>
<wgt id='1914'> +7.8998817e+01 </wgt>
<wgt id='1915'> +7.9262951e+01 </wgt>
<wgt id='1916'> +7.9209516e+01 </wgt>
<wgt id='1917'> +7.9372040e+01 </wgt>
<wgt id='1918'> +7.9259826e+01 </wgt>
<wgt id='1919'> +7.9304594e+01 </wgt>
<wgt id='1920'> +7.9255657e+01 </wgt>
<wgt id='1921'> +7.9279351e+01 </wgt>
<wgt id='1922'> +7.9296804e+01 </wgt>
<wgt id='1923'> +7.9192143e+01 </wgt>
<wgt id='1924'> +7.9273209e+01 </wgt>
<wgt id='1925'> +7.9250394e+01 </wgt>
<wgt id='1926'> +7.9386813e+01 </wgt>
<wgt id='1927'> +7.9253743e+01 </wgt>
<wgt id='1928'> +7.9270673e+01 </wgt>
<wgt id='1929'> +7.9262339e+01 </wgt>
<wgt id='1930'> +7.9256272e+01 </wgt>
<wgt id='1931'> +7.9193423e+01 </wgt>
<wgt id='1932'> +7.9244184e+01 </wgt>
<wgt id='1933'> +7.9264554e+01 </wgt>
<wgt id='1934'> +7.9324439e+01 </wgt>
<wgt id='1935'> +7.9279186e+01 </wgt>
<wgt id='1936'> +7.9295332e+01 </wgt>
<wgt id='1937'> +7.9260176e+01 </wgt>
<wgt id='1938'> +7.9261364e+01 </wgt>
<wgt id='1939'> +7.9272717e+01 </wgt>
<wgt id='1940'> +7.9188790e+01 </wgt>
<wgt id='1941'> +7.9263479e+01 </wgt>
<wgt id='1942'> +7.9209863e+01 </wgt>
<wgt id='1943'> +7.9189404e+01 </wgt>
<wgt id='1944'> +7.9252817e+01 </wgt>
<wgt id='1945'> +7.9295142e+01 </wgt>
<wgt id='1946'> +7.9208682e+01 </wgt>
<wgt id='1947'> +7.9245017e+01 </wgt>
<wgt id='1948'> +7.9271716e+01 </wgt>
<wgt id='1949'> +7.9218779e+01 </wgt>
<wgt id='1950'> +7.9283460e+01 </wgt>
<wgt id='1951'> +7.9235519e+01 </wgt>
<wgt id='1952'> +7.9245752e+01 </wgt>
<wgt id='1953'> +7.9255144e+01 </wgt>
<wgt id='1954'> +7.9249517e+01 </wgt>
<wgt id='1955'> +7.9238922e+01 </wgt>
<wgt id='1956'> +7.9243784e+01 </wgt>
<wgt id='1957'> +7.9245010e+01 </wgt>
<wgt id='1958'> +7.9244170e+01 </wgt>
<wgt id='1959'> +7.9244205e+01 </wgt>
<wgt id='1960'> +7.9244560e+01 </wgt>
<wgt id='1961'> +7.9244057e+01 </wgt>
<wgt id='1962'> +7.9245210e+01 </wgt>
</rwgt>
</event>
<event npLO=" -1 " npNLO=" 1 ">
 8      1 +1.5146096e+02 3.20088340e+01 7.54677110e-03 1.39879130e-01
       21 -1    0    0  501  502 +0.0000000000e+00 +0.0000000000e+00 +9.5794682000e+00 9.5794682000e+00 0.0000000000e+00 0.0000e+00 9.0000e+00
        2 -1    0    0  502    0 -0.0000000000e+00 -0.0000000000e+00 -3.9951192000e+02 3.9951192000e+02 0.0000000000e+00 0.0000e+00 9.0000e+00
       23  2    1    2    0    0 -3.0149717000e+01 -6.9825577000e+00 -3.0486157000e+02 3.1678410000e+02 8.0335706000e+01 0.0000e+00 0.0000e+00
       13  1    3    3    0    0 -2.6899751000e+01 -8.5769747000e+00 -6.9897503000e+01 7.5384495000e+01 0.0000000000e+00 0.0000e+00 9.0000e+00
      -13  1    3    3    0    0 +2.0209186000e+01 +1.0309605000e+01 -1.7438981000e+02 1.7585934000e+02 0.0000000000e+00 0.0000e+00 9.0000e+00
       22  1    3    3    0    0 -2.3459152000e+01 -8.7151877000e+00 -6.0574258000e+01 6.5540271000e+01 0.0000000000e+00 0.0000e+00 9.0000e+00
        2  1    1    2  503    0 +3.2626289000e+01 +6.5101139000e+00 -8.0071712000e+01 8.6708335000e+01 0.0000000000e+00 0.0000e+00 9.0000e+00
       21  1    1    2  501  503 -2.4765720000e+00 +4.7244382000e-01 -4.9991700000e+00 5.5989563000e+00 0.0000000000e+00 0.0000e+00 9.0000e+00
#aMCatNLO 2  0  0  6  1 0.59193249E-01 0.00000000E+00 -9  7  0 0.00000000E+00 0.00000000E+00 0.00000000E+00 0.00000000E+00 0.00000000E+00
<rwgt>
<wgt id='1001'> +1.5146000e+02 </wgt>
<wgt id='1002'> +1.5146000e+02 </wgt>
<wgt id='1003'> +1.4417000e+02 </wgt>
<wgt id='1004'> +1.5116000e+02 </wgt>
<wgt id='1005'> +1.5434000e+02 </wgt>
<wgt id='1006'> +1.5191000e+02 </wgt>
<wgt id='1007'> +1.4503000e+02 </wgt>
<wgt id='1008'> +1.5198000e+02 </wgt>
<wgt id='1009'> +1.5197000e+02 </wgt>
<wgt id='1010'> +1.4855000e+02 </wgt>
<wgt id='1011'> +1.5101000e+02 </wgt>
<wgt id='1012'> +1.5310000e+02 </wgt>
<wgt id='1013'> +1.5735000e+02 </wgt>
<wgt id='1014'> +1.5187000e+02 </wgt>
<wgt id='1015'> +1.5266000e+02 </wgt>
<wgt id='1016'> +1.5400000e+02 </wgt>
<wgt id='1017'> +1.5200000e+02 </wgt>
<wgt id='1018'> +1.4887000e+02 </wgt>
<wgt id='1019'> +1.5014000e+02 </wgt>
<wgt id='1020'> +1.4503000e+02 </wgt>
<wgt id='1021'> +1.5123000e+02 </wgt>
<wgt id='1022'> +1.4612000e+02 </wgt>
<wgt id='1023'> +1.5552000e+02 </wgt>
<wgt id='1024'> +1.5194000e+02 </wgt>
<wgt id='1025'> +1.5832000e+02 </wgt>
<wgt id='1026'> +1.5297000e+02 </wgt>
<wgt id='1027'> +1.5184000e+02 </wgt>
<wgt id='1028'> +1.4994000e+02 </wgt>
<wgt id='1029'> +1.4551000e+02 </wgt>
<wgt id='1030'> +1.5282000e+02 </wgt>
<wgt id='1031'> +1.4872000e+02 </wgt>
<wgt id='1032'> +1.5072000e+02 </wgt>
<wgt id='1033'> +1.5203000e+02 </wgt>
<wgt id='1034'> +1.5349000e+02 </wgt>
<wgt id='1035'> +1.5069000e+02 </wgt>
<wgt id='1036'> +1.5517000e+02 </wgt>
<wgt id='1037'> +1.5146000e+02 </wgt>
<wgt id='1038'> +1.4983000e+02 </wgt>
<wgt id='1039'> +1.4952000e+02 </wgt>
<wgt id='1040'> +1.4852000e+02 </wgt>
<wgt id='1041'> +1.4816000e+02 </wgt>
<wgt id='1042'> +1.5313000e+02 </wgt>
<wgt id='1043'> +1.5360000e+02 </wgt>
<wgt id='1044'> +1.5342000e+02 </wgt>
<wgt id='1045'> +1.5368000e+02 </wgt>
<wgt id='1046'> +1.5159000e+02 </wgt>
<wgt id='1047'> +1.5495000e+02 </wgt>
<wgt id='1048'> +1.5262000e+02 </wgt>
<wgt id='1049'> +1.4926000e+02 </wgt>
<wgt id='1050'> +1.5048000e+02 </wgt>
<wgt id='1051'> +1.4871000e+02 </wgt>
<wgt id='1052'> +1.5292000e+02 </wgt>
<wgt id='1053'> +1.5236000e+02 </wgt>
<wgt id='1054'> +1.5052000e+02 </wgt>
<wgt id='1055'> +1.5499000e+02 </wgt>
<wgt id='1056'> +1.5388000e+02 </wgt>
<wgt id='1057'> +1.5229000e+02 </wgt>
<wgt id='1058'> +1.5117000e+02 </wgt>
<wgt id='1059'> +1.5081000e+02 </wgt>
<wgt id='1060'> +1.5395000e+02 </wgt>
<wgt id='1061'> +1.5136000e+02 </wgt>
<wgt id='1062'> +1.5062000e+02 </wgt>
<wgt id='1063'> +1.4926000e+02 </wgt>
<wgt id='1064'> +1.5098000e+02 </wgt>
<wgt id='1065'> +1.5612000e+02 </wgt>
<wgt id='1066'> +1.4550000e+02 </wgt>
<wgt id='1067'> +1.5216000e+02 </wgt>
<wgt id='1068'> +1.5227000e+02 </wgt>
<wgt id='1069'> +1.5400000e+02 </wgt>
<wgt id='1070'> +1.5219000e+02 </wgt>
<wgt id='1071'> +1.5013000e+02 </wgt>
<wgt id='1072'> +1.5085000e+02 </wgt>
<wgt id='1073'> +1.5363000e+02 </wgt>
<wgt id='1074'> +1.5250000e+02 </wgt>
<wgt id='1075'> +1.4835000e+02 </wgt>
<wgt id='1076'> +1.5599000e+02 </wgt>
<wgt id='1077'> +1.5166000e+02 </wgt>
<wgt id='1078'> +1.5614000e+02 </wgt>
<wgt id='1079'> +1.5489000e+02 </wgt>
<wgt id='1080'> +1.5392000e+02 </wgt>
<wgt id='1081'> +1.4938000e+02 </wgt>
<wgt id='1082'> +1.5120000e+02 </wgt>
<wgt id='1083'> +1.5602000e+02 </wgt>
<wgt id='1084'> +1.5295000e+02 </wgt>
<wgt id='1085'> +1.4773000e+02 </wgt>
<wgt id='1086'> +1.5195000e+02 </wgt>
<wgt id='1087'> +1.4942000e+02 </wgt>
<wgt id='1088'> +1.5132000e+02 </wgt>
<wgt id='1089'> +1.5355000e+02 </wgt>
<wgt id='1090'> +1.5259000e+02 </wgt>
<wgt id='1091'> +1.5023000e+02 </wgt>
<wgt id='1092'> +1.5333000e+02 </wgt>
<wgt id='1093'> +1.4861000e+02 </wgt>
<wgt id='1094'> +1.4952000e+02 </wgt>
<wgt id='1095'> +1.4848000e+02 </wgt>
<wgt id='1096'> +1.5478000e+02 </wgt>
<wgt id='1097'> +1.4687000e+02 </wgt>
<wgt id='1098'> +1.5253000e+02 </wgt>
<wgt id='1099'> +1.5010000e+02 </wgt>
<wgt id='1100'> +1.5373000e+02 </wgt>
<wgt id='1101'> +1.5029000e+02 </wgt>
<wgt id='1102'> +1.4534000e+02 </wgt>
<wgt id='1103'> +1.4835000e+02 </wgt>
<wgt id='1104'> +1.5400000e+02 </wgt>
<wgt id='1105'> +1.5146096e+02 </wgt>
<wgt id='1106'> +5.9894316e+01 </wgt>
<wgt id='1107'> +9.8936087e+01 </wgt>
<wgt id='1108'> +8.4087167e+01 </wgt>
<wgt id='1109'> +6.6503517e+01 </wgt>
<wgt id='1110'> +1.0985346e+02 </wgt>
<wgt id='1111'> +6.5970674e+01 </wgt>
<wgt id='1112'> +5.2175403e+01 </wgt>
<wgt id='1113'> +8.6185644e+01 </wgt>
<wgt id='1114'> +7.9134884e+01 </wgt>
<wgt id='1115'> +7.9909523e+01 </wgt>
<wgt id='1116'> +7.9636673e+01 </wgt>
<wgt id='1117'> +7.7252440e+01 </wgt>
<wgt id='1118'> +7.7410331e+01 </wgt>
<wgt id='1119'> +7.8952517e+01 </wgt>
<wgt id='1120'> +7.7417887e+01 </wgt>
<wgt id='1121'> +8.1113855e+01 </wgt>
<wgt id='1122'> +8.0040720e+01 </wgt>
<wgt id='1123'> +7.8788218e+01 </wgt>
<wgt id='1124'> +7.7392863e+01 </wgt>
<wgt id='1125'> +7.8809501e+01 </wgt>
<wgt id='1126'> +7.8046338e+01 </wgt>
<wgt id='1127'> +7.9720038e+01 </wgt>
<wgt id='1128'> +8.0192463e+01 </wgt>
<wgt id='1129'> +7.9697778e+01 </wgt>
<wgt id='1130'> +8.0390418e+01 </wgt>
<wgt id='1131'> +7.8816123e+01 </wgt>
<wgt id='1132'> +7.9016285e+01 </wgt>
<wgt id='1133'> +8.0801018e+01 </wgt>
<wgt id='1134'> +7.8836671e+01 </wgt>
<wgt id='1135'> +7.9141359e+01 </wgt>
<wgt id='1136'> +8.0336266e+01 </wgt>
<wgt id='1137'> +8.0406558e+01 </wgt>
<wgt id='1138'> +7.9783692e+01 </wgt>
<wgt id='1139'> +7.9609474e+01 </wgt>
<wgt id='1140'> +8.1568866e+01 </wgt>
<wgt id='1141'> +7.8116012e+01 </wgt>
<wgt id='1142'> +7.9091186e+01 </wgt>
<wgt id='1143'> +7.9481893e+01 </wgt>
<wgt id='1144'> +7.8669265e+01 </wgt>
<wgt id='1145'> +7.9128965e+01 </wgt>
<wgt id='1146'> +7.6932727e+01 </wgt>
<wgt id='1147'> +7.8357906e+01 </wgt>
<wgt id='1148'> +7.8203090e+01 </wgt>
<wgt id='1149'> +7.8185698e+01 </wgt>
<wgt id='1150'> +7.9115546e+01 </wgt>
<wgt id='1151'> +8.0140801e+01 </wgt>
<wgt id='1152'> +7.7797983e+01 </wgt>
<wgt id='1153'> +7.9127378e+01 </wgt>
<wgt id='1154'> +7.9729318e+01 </wgt>
<wgt id='1155'> +7.8747999e+01 </wgt>
<wgt id='1156'> +7.9405089e+01 </wgt>
<wgt id='1157'> +7.8415205e+01 </wgt>
<wgt id='1158'> +7.8224410e+01 </wgt>
<wgt id='1159'> +7.9298191e+01 </wgt>
<wgt id='1160'> +8.0122185e+01 </wgt>
<wgt id='1161'> +7.8668420e+01 </wgt>
<wgt id='1162'> +8.2354327e+01 </wgt>
<wgt id='1163'> +7.9870770e+01 </wgt>
<wgt id='1164'> +7.9393656e+01 </wgt>
<wgt id='1165'> +7.8267708e+01 </wgt>
<wgt id='1166'> +7.9749646e+01 </wgt>
<wgt id='1167'> +7.8444317e+01 </wgt>
<wgt id='1168'> +7.9581790e+01 </wgt>
<wgt id='1169'> +8.1469147e+01 </wgt>
<wgt id='1170'> +7.9152530e+01 </wgt>
<wgt id='1171'> +8.1111693e+01 </wgt>
<wgt id='1172'> +8.0270316e+01 </wgt>
<wgt id='1173'> +7.8398040e+01 </wgt>
<wgt id='1174'> +8.0523551e+01 </wgt>
<wgt id='1175'> +7.9240170e+01 </wgt>
<wgt id='1176'> +7.9528716e+01 </wgt>
<wgt id='1177'> +7.8884201e+01 </wgt>
<wgt id='1178'> +7.9123461e+01 </wgt>
<wgt id='1179'> +7.9766581e+01 </wgt>
<wgt id='1180'> +7.9250761e+01 </wgt>
<wgt id='1181'> +7.9724778e+01 </wgt>
<wgt id='1182'> +7.9604434e+01 </wgt>
<wgt id='1183'> +7.9904946e+01 </wgt>
<wgt id='1184'> +7.9322587e+01 </wgt>
<wgt id='1185'> +7.8391877e+01 </wgt>
<wgt id='1186'> +8.1854494e+01 </wgt>
<wgt id='1187'> +7.6965044e+01 </wgt>
<wgt id='1188'> +7.7620568e+01 </wgt>
<wgt id='1189'> +7.8057561e+01 </wgt>
<wgt id='1190'> +7.9074022e+01 </wgt>
<wgt id='1191'> +7.8876778e+01 </wgt>
<wgt id='1192'> +7.8722327e+01 </wgt>
<wgt id='1193'> +7.8439966e+01 </wgt>
<wgt id='1194'> +7.8608819e+01 </wgt>
<wgt id='1195'> +7.8628694e+01 </wgt>
<wgt id='1196'> +8.0390418e+01 </wgt>
<wgt id='1197'> +7.6879692e+01 </wgt>
<wgt id='1198'> +7.9367249e+01 </wgt>
<wgt id='1199'> +7.9125695e+01 </wgt>
<wgt id='1200'> +7.9942575e+01 </wgt>
<wgt id='1201'> +7.7762309e+01 </wgt>
<wgt id='1202'> +7.7364578e+01 </wgt>
<wgt id='1203'> +7.5795741e+01 </wgt>
<wgt id='1204'> +7.8214280e+01 </wgt>
<wgt id='1205'> +7.9523294e+01 </wgt>
<wgt id='1206'> +7.8240447e+01 </wgt>
<wgt id='1207'> +7.8698822e+01 </wgt>
<wgt id='1208'> +7.9131358e+01 </wgt>
<wgt id='1209'> +7.9487410e+01 </wgt>
<wgt id='1210'> +7.8885103e+01 </wgt>
<wgt id='1211'> +7.8558142e+01 </wgt>
<wgt id='1212'> +7.8987578e+01 </wgt>
<wgt id='1213'> +8.0205089e+01 </wgt>
<wgt id='1214'> +8.0700768e+01 </wgt>
<wgt id='1215'> +7.5980515e+01 </wgt>
<wgt id='1216'> +7.9383905e+01 </wgt>
<wgt id='1217'> +7.9486708e+01 </wgt>
<wgt id='1218'> +7.9325940e+01 </wgt>
<wgt id='1219'> +7.9382815e+01 </wgt>
<wgt id='1220'> +7.9354913e+01 </wgt>
<wgt id='1221'> +7.9273544e+01 </wgt>
<wgt id='1222'> +7.9398929e+01 </wgt>
<wgt id='1223'> +7.9144469e+01 </wgt>
<wgt id='1224'> +7.9316482e+01 </wgt>
<wgt id='1225'> +7.9023607e+01 </wgt>
<wgt id='1226'> +7.9297350e+01 </wgt>
<wgt id='1227'> +7.9536884e+01 </wgt>
<wgt id='1228'> +7.9385175e+01 </wgt>
<wgt id='1229'> +7.9252349e+01 </wgt>
<wgt id='1230'> +7.9462602e+01 </wgt>
<wgt id='1231'> +7.9307900e+01 </wgt>
<wgt id='1232'> +7.9390791e+01 </wgt>
<wgt id='1233'> +7.9314989e+01 </wgt>
<wgt id='1234'> +7.9375001e+01 </wgt>
<wgt id='1235'> +7.9327262e+01 </wgt>
<wgt id='1236'> +7.9158135e+01 </wgt>
<wgt id='1237'> +7.9587808e+01 </wgt>
<wgt id='1238'> +7.9453505e+01 </wgt>
<wgt id='1239'> +7.9578355e+01 </wgt>
<wgt id='1240'> +7.9481195e+01 </wgt>
<wgt id='1241'> +7.9141212e+01 </wgt>
<wgt id='1242'> +7.9318967e+01 </wgt>
<wgt id='1243'> +7.9331458e+01 </wgt>
<wgt id='1244'> +7.9467950e+01 </wgt>
<wgt id='1245'> +7.9781071e+01 </wgt>
<wgt id='1246'> +7.9200882e+01 </wgt>
<wgt id='1247'> +7.8976503e+01 </wgt>
<wgt id='1248'> +7.9492177e+01 </wgt>
<wgt id='1249'> +7.9395417e+01 </wgt>
<wgt id='1250'> +7.9359486e+01 </wgt>
<wgt id='1251'> +7.9435570e+01 </wgt>
<wgt id='1252'> +7.9463301e+01 </wgt>
<wgt id='1253'> +7.9272875e+01 </wgt>
<wgt id='1254'> +7.9419669e+01 </wgt>
<wgt id='1255'> +7.9346715e+01 </wgt>
<wgt id='1256'> +7.9356709e+01 </wgt>
<wgt id='1257'> +7.9359666e+01 </wgt>
<wgt id='1258'> +7.9477564e+01 </wgt>
<wgt id='1259'> +7.9357070e+01 </wgt>
<wgt id='1260'> +7.9398898e+01 </wgt>
<wgt id='1261'> +7.9457518e+01 </wgt>
<wgt id='1262'> +7.9340567e+01 </wgt>
<wgt id='1263'> +7.9351246e+01 </wgt>
<wgt id='1264'> +7.9498371e+01 </wgt>
<wgt id='1265'> +7.9475013e+01 </wgt>
<wgt id='1266'> +7.9330924e+01 </wgt>
<wgt id='1267'> +7.9370771e+01 </wgt>
<wgt id='1268'> +7.9365934e+01 </wgt>
<wgt id='1269'> +7.9245907e+01 </wgt>
<wgt id='1270'> +7.9354139e+01 </wgt>
<wgt id='1271'> +7.9420373e+01 </wgt>
<wgt id='1272'> +7.9311982e+01 </wgt>
<wgt id='1273'> +7.9388604e+01 </wgt>
<wgt id='1274'> +7.9198151e+01 </wgt>
<wgt id='1275'> +7.9402725e+01 </wgt>
<wgt id='1276'> +7.9430476e+01 </wgt>
<wgt id='1277'> +7.9453267e+01 </wgt>
<wgt id='1278'> +7.9323196e+01 </wgt>
<wgt id='1279'> +7.9457401e+01 </wgt>
<wgt id='1280'> +7.9348517e+01 </wgt>
<wgt id='1281'> +7.9500662e+01 </wgt>
<wgt id='1282'> +7.9349047e+01 </wgt>
<wgt id='1283'> +7.9269176e+01 </wgt>
<wgt id='1284'> +7.9468724e+01 </wgt>
<wgt id='1285'> +7.9283909e+01 </wgt>
<wgt id='1286'> +7.9475566e+01 </wgt>
<wgt id='1287'> +7.9397478e+01 </wgt>
<wgt id='1288'> +7.9478207e+01 </wgt>
<wgt id='1289'> +7.9414015e+01 </wgt>
<wgt id='1290'> +7.9383117e+01 </wgt>
<wgt id='1291'> +7.9290905e+01 </wgt>
<wgt id='1292'> +7.9352528e+01 </wgt>
<wgt id='1293'> +7.9445045e+01 </wgt>
<wgt id='1294'> +7.9375366e+01 </wgt>
<wgt id='1295'> +7.9337173e+01 </wgt>
<wgt id='1296'> +7.9387669e+01 </wgt>
<wgt id='1297'> +7.9415342e+01 </wgt>
<wgt id='1298'> +7.9358849e+01 </wgt>
<wgt id='1299'> +7.9419118e+01 </wgt>
<wgt id='1300'> +7.9337912e+01 </wgt>
<wgt id='1301'> +7.9358151e+01 </wgt>
<wgt id='1302'> +7.9364070e+01 </wgt>
<wgt id='1303'> +7.9395659e+01 </wgt>
<wgt id='1304'> +7.9338627e+01 </wgt>
<wgt id='1305'> +7.9294964e+01 </wgt>
<wgt id='1306'> +7.9343395e+01 </wgt>
<wgt id='1307'> +7.9379384e+01 </wgt>
<wgt id='1308'> +7.9338248e+01 </wgt>
<wgt id='1309'> +7.9388915e+01 </wgt>
<wgt id='1310'> +7.9458982e+01 </wgt>
<wgt id='1311'> +7.9399106e+01 </wgt>
<wgt id='1312'> +7.9370278e+01 </wgt>
<wgt id='1313'> +7.9389301e+01 </wgt>
<wgt id='1314'> +7.9412101e+01 </wgt>
<wgt id='1315'> +7.9392550e+01 </wgt>
<wgt id='1316'> +7.9332053e+01 </wgt>
<wgt id='1317'> +7.6836886e+01 </wgt>
<wgt id='1318'> +8.2178040e+01 </wgt>
<wgt id='1319'> +8.7326380e+01 </wgt>
<wgt id='1320'> +7.9778171e+01 </wgt>
<wgt id='1321'> +7.9795082e+01 </wgt>
<wgt id='1322'> +8.0402234e+01 </wgt>
<wgt id='1323'> +8.0105734e+01 </wgt>
<wgt id='1324'> +8.0319856e+01 </wgt>
<wgt id='1325'> +7.9952305e+01 </wgt>
<wgt id='1326'> +8.0378349e+01 </wgt>
<wgt id='1327'> +7.8649120e+01 </wgt>
<wgt id='1328'> +8.1213788e+01 </wgt>
<wgt id='1329'> +7.8335744e+01 </wgt>
<wgt id='1330'> +8.1722517e+01 </wgt>
<wgt id='1331'> +8.0713806e+01 </wgt>
<wgt id='1332'> +7.9421226e+01 </wgt>
<wgt id='1333'> +7.7760232e+01 </wgt>
<wgt id='1334'> +8.0723760e+01 </wgt>
<wgt id='1335'> +7.9626488e+01 </wgt>
<wgt id='1336'> +7.9590514e+01 </wgt>
<wgt id='1337'> +8.0436156e+01 </wgt>
<wgt id='1338'> +7.9020508e+01 </wgt>
<wgt id='1339'> +8.0624650e+01 </wgt>
<wgt id='1340'> +7.8830159e+01 </wgt>
<wgt id='1341'> +7.9766238e+01 </wgt>
<wgt id='1342'> +7.9729009e+01 </wgt>
<wgt id='1343'> +7.9942239e+01 </wgt>
<wgt id='1344'> +7.9602335e+01 </wgt>
<wgt id='1345'> +7.8129847e+01 </wgt>
<wgt id='1346'> +8.1327922e+01 </wgt>
<wgt id='1347'> +7.9399138e+01 </wgt>
<wgt id='1348'> +8.0280567e+01 </wgt>
<wgt id='1349'> +7.8961029e+01 </wgt>
<wgt id='1350'> +8.0059625e+01 </wgt>
<wgt id='1351'> +7.9611984e+01 </wgt>
<wgt id='1352'> +7.9991958e+01 </wgt>
<wgt id='1353'> +8.0221171e+01 </wgt>
<wgt id='1354'> +7.8822214e+01 </wgt>
<wgt id='1355'> +8.0587997e+01 </wgt>
<wgt id='1356'> +7.9033092e+01 </wgt>
<wgt id='1357'> +7.9837358e+01 </wgt>
<wgt id='1358'> +7.9454129e+01 </wgt>
<wgt id='1359'> +7.9161399e+01 </wgt>
<wgt id='1360'> +7.9930322e+01 </wgt>
<wgt id='1361'> +8.0466807e+01 </wgt>
<wgt id='1362'> +7.9119654e+01 </wgt>
<wgt id='1363'> +7.9815287e+01 </wgt>
<wgt id='1364'> +7.9274762e+01 </wgt>
<wgt id='1365'> +7.9516461e+01 </wgt>
<wgt id='1366'> +7.9070448e+01 </wgt>
<wgt id='1367'> +7.9738972e+01 </wgt>
<wgt id='1368'> +7.9944400e+01 </wgt>
<wgt id='1369'> +8.0149765e+01 </wgt>
<wgt id='1370'> +7.9274965e+01 </wgt>
<wgt id='1371'> +7.9415199e+01 </wgt>
<wgt id='1372'> +8.0039194e+01 </wgt>
<wgt id='1373'> +7.8668664e+01 </wgt>
<wgt id='1374'> +7.8891950e+01 </wgt>
<wgt id='1375'> +7.9570771e+01 </wgt>
<wgt id='1376'> +8.0035814e+01 </wgt>
<wgt id='1377'> +7.6875581e+01 </wgt>
<wgt id='1378'> +8.2596381e+01 </wgt>
<wgt id='1379'> +7.7370453e+01 </wgt>
<wgt id='1380'> +7.4880422e+01 </wgt>
<wgt id='1381'> +7.9805337e+01 </wgt>
<wgt id='1382'> +8.5029770e+01 </wgt>
<wgt id='1383'> +7.7770937e+01 </wgt>
<wgt id='1384'> +7.7401488e+01 </wgt>
<wgt id='1385'> +1.1056511e+02 </wgt>
<wgt id='1386'> +1.1076840e+02 </wgt>
<wgt id='1387'> +1.1033941e+02 </wgt>
<wgt id='1388'> +1.1041518e+02 </wgt>
<wgt id='1389'> +1.1081212e+02 </wgt>
<wgt id='1390'> +1.1076915e+02 </wgt>
<wgt id='1391'> +1.1032153e+02 </wgt>
<wgt id='1392'> +1.1146993e+02 </wgt>
<wgt id='1393'> +1.0993328e+02 </wgt>
<wgt id='1394'> +1.1034194e+02 </wgt>
<wgt id='1395'> +1.1083517e+02 </wgt>
<wgt id='1396'> +1.0998230e+02 </wgt>
<wgt id='1397'> +1.1086656e+02 </wgt>
<wgt id='1398'> +1.1019071e+02 </wgt>
<wgt id='1399'> +1.1083513e+02 </wgt>
<wgt id='1400'> +1.1114291e+02 </wgt>
<wgt id='1401'> +1.1010982e+02 </wgt>
<wgt id='1402'> +1.1098995e+02 </wgt>
<wgt id='1403'> +1.1037144e+02 </wgt>
<wgt id='1404'> +1.0891191e+02 </wgt>
<wgt id='1405'> +1.1136888e+02 </wgt>
<wgt id='1406'> +1.1030429e+02 </wgt>
<wgt id='1407'> +1.1103189e+02 </wgt>
<wgt id='1408'> +1.1079405e+02 </wgt>
<wgt id='1409'> +1.1009934e+02 </wgt>
<wgt id='1410'> +1.1065337e+02 </wgt>
<wgt id='1411'> +1.1029142e+02 </wgt>
<wgt id='1412'> +1.1106793e+02 </wgt>
<wgt id='1413'> +1.0972819e+02 </wgt>
<wgt id='1414'> +1.1090224e+02 </wgt>
<wgt id='1415'> +1.1030258e+02 </wgt>
<wgt id='1416'> +1.1090361e+02 </wgt>
<wgt id='1417'> +1.1047300e+02 </wgt>
<wgt id='1418'> +1.1029959e+02 </wgt>
<wgt id='1419'> +1.1110208e+02 </wgt>
<wgt id='1420'> +1.0989055e+02 </wgt>
<wgt id='1421'> +1.1079243e+02 </wgt>
<wgt id='1422'> +1.1071709e+02 </wgt>
<wgt id='1423'> +1.1042261e+02 </wgt>
<wgt id='1424'> +1.1078676e+02 </wgt>
<wgt id='1425'> +1.0990297e+02 </wgt>
<wgt id='1426'> +1.1073989e+02 </wgt>
<wgt id='1427'> +1.1052150e+02 </wgt>
<wgt id='1428'> +1.1060207e+02 </wgt>
<wgt id='1429'> +1.0984704e+02 </wgt>
<wgt id='1430'> +1.1071612e+02 </wgt>
<wgt id='1431'> +1.1063547e+02 </wgt>
<wgt id='1432'> +1.1070235e+02 </wgt>
<wgt id='1433'> +1.1068016e+02 </wgt>
<wgt id='1434'> +1.1076491e+02 </wgt>
<wgt id='1435'> +1.1113677e+02 </wgt>
<wgt id='1436'> +6.9574787e+01 </wgt>
<wgt id='1437'> +6.9581331e+01 </wgt>
<wgt id='1438'> +6.9507542e+01 </wgt>
<wgt id='1439'> +6.9573032e+01 </wgt>
<wgt id='1440'> +6.9690816e+01 </wgt>
<wgt id='1441'> +6.9767127e+01 </wgt>
<wgt id='1442'> +6.9284513e+01 </wgt>
<wgt id='1443'> +6.9735915e+01 </wgt>
<wgt id='1444'> +6.9318969e+01 </wgt>
<wgt id='1445'> +6.9096234e+01 </wgt>
<wgt id='1446'> +6.9858887e+01 </wgt>
<wgt id='1447'> +6.9647054e+01 </wgt>
<wgt id='1448'> +6.9505256e+01 </wgt>
<wgt id='1449'> +6.9807727e+01 </wgt>
<wgt id='1450'> +6.9690805e+01 </wgt>
<wgt id='1451'> +6.9676801e+01 </wgt>
<wgt id='1452'> +6.9233050e+01 </wgt>
<wgt id='1453'> +6.9537748e+01 </wgt>
<wgt id='1454'> +6.9743073e+01 </wgt>
<wgt id='1455'> +6.9273918e+01 </wgt>
<wgt id='1456'> +6.9478476e+01 </wgt>
<wgt id='1457'> +6.9587753e+01 </wgt>
<wgt id='1458'> +6.9822513e+01 </wgt>
<wgt id='1459'> +6.9669975e+01 </wgt>
<wgt id='1460'> +6.9715712e+01 </wgt>
<wgt id='1461'> +7.0107393e+01 </wgt>
<wgt id='1462'> +6.9605422e+01 </wgt>
<wgt id='1463'> +6.9701096e+01 </wgt>
<wgt id='1464'> +6.9403537e+01 </wgt>
<wgt id='1465'> +8.0710523e+01 </wgt>
<wgt id='1466'> +7.7732912e+01 </wgt>
<wgt id='1467'> +7.7542941e+01 </wgt>
<wgt id='1468'> +7.7274890e+01 </wgt>
<wgt id='1469'> +7.7965924e+01 </wgt>
<wgt id='1470'> +7.7751383e+01 </wgt>
<wgt id='1471'> +7.7940654e+01 </wgt>
<wgt id='1472'> +7.7103593e+01 </wgt>
<wgt id='1473'> +7.8774162e+01 </wgt>
<wgt id='1474'> +7.9026019e+01 </wgt>
<wgt id='1475'> +7.7177956e+01 </wgt>
<wgt id='1476'> +7.7441035e+01 </wgt>
<wgt id='1477'> +7.7761622e+01 </wgt>
<wgt id='1478'> +7.7421086e+01 </wgt>
<wgt id='1479'> +7.8135858e+01 </wgt>
<wgt id='1480'> +7.7843389e+01 </wgt>
<wgt id='1481'> +7.7577727e+01 </wgt>
<wgt id='1482'> +7.7827435e+01 </wgt>
<wgt id='1483'> +7.7558982e+01 </wgt>
<wgt id='1484'> +7.8047825e+01 </wgt>
<wgt id='1485'> +7.7585202e+01 </wgt>
<wgt id='1486'> +7.7917101e+01 </wgt>
<wgt id='1487'> +7.7470491e+01 </wgt>
<wgt id='1488'> +7.7313899e+01 </wgt>
<wgt id='1489'> +7.8075147e+01 </wgt>
<wgt id='1490'> +7.7656635e+01 </wgt>
<wgt id='1491'> +7.7726541e+01 </wgt>
<wgt id='1492'> +7.7568990e+01 </wgt>
<wgt id='1493'> +7.7643900e+01 </wgt>
<wgt id='1494'> +7.7733437e+01 </wgt>
<wgt id='1495'> +7.7598907e+01 </wgt>
<wgt id='1496'> +7.7455015e+01 </wgt>
<wgt id='1497'> +7.7795120e+01 </wgt>
<wgt id='1498'> +7.7608326e+01 </wgt>
<wgt id='1499'> +7.7234706e+01 </wgt>
<wgt id='1500'> +7.7784563e+01 </wgt>
<wgt id='1501'> +7.7909720e+01 </wgt>
<wgt id='1502'> +7.7645799e+01 </wgt>
<wgt id='1503'> +7.7571174e+01 </wgt>
<wgt id='1504'> +7.7781640e+01 </wgt>
<wgt id='1505'> +7.7914542e+01 </wgt>
<wgt id='1506'> +7.7729022e+01 </wgt>
<wgt id='1507'> +7.7874314e+01 </wgt>
<wgt id='1508'> +7.7665799e+01 </wgt>
<wgt id='1509'> +7.7720834e+01 </wgt>
<wgt id='1510'> +7.7832554e+01 </wgt>
<wgt id='1511'> +7.7791830e+01 </wgt>
<wgt id='1512'> +7.7687386e+01 </wgt>
<wgt id='1513'> +7.7510789e+01 </wgt>
<wgt id='1514'> +7.7668309e+01 </wgt>
<wgt id='1515'> +7.7702433e+01 </wgt>
<wgt id='1516'> +7.7756892e+01 </wgt>
<wgt id='1517'> +7.7691262e+01 </wgt>
<wgt id='1518'> +7.7788296e+01 </wgt>
<wgt id='1519'> +7.7872547e+01 </wgt>
<wgt id='1520'> +7.7749371e+01 </wgt>
<wgt id='1521'> +7.7755949e+01 </wgt>
<wgt id='1522'> +7.7826907e+01 </wgt>
<wgt id='1523'> +7.7723908e+01 </wgt>
<wgt id='1524'> +7.7846109e+01 </wgt>
<wgt id='1525'> +7.7663133e+01 </wgt>
<wgt id='1526'> +7.7584089e+01 </wgt>
<wgt id='1527'> +7.7695838e+01 </wgt>
<wgt id='1528'> +7.7646075e+01 </wgt>
<wgt id='1529'> +7.7725198e+01 </wgt>
<wgt id='1530'> +7.7727046e+01 </wgt>
<wgt id='1531'> +7.7697638e+01 </wgt>
<wgt id='1532'> +7.7659613e+01 </wgt>
<wgt id='1533'> +7.7724249e+01 </wgt>
<wgt id='1534'> +7.7745067e+01 </wgt>
<wgt id='1535'> +7.7736922e+01 </wgt>
<wgt id='1536'> +7.7687789e+01 </wgt>
<wgt id='1537'> +7.7684499e+01 </wgt>
<wgt id='1538'> +7.7732708e+01 </wgt>
<wgt id='1539'> +7.7718274e+01 </wgt>
<wgt id='1540'> +7.7749597e+01 </wgt>
<wgt id='1541'> +7.7683738e+01 </wgt>
<wgt id='1542'> +7.7732068e+01 </wgt>
<wgt id='1543'> +7.7745014e+01 </wgt>
<wgt id='1544'> +7.7747496e+01 </wgt>
<wgt id='1545'> +7.7789002e+01 </wgt>
<wgt id='1546'> +7.7754934e+01 </wgt>
<wgt id='1547'> +7.7754160e+01 </wgt>
<wgt id='1548'> +7.7668565e+01 </wgt>
<wgt id='1549'> +7.7747323e+01 </wgt>
<wgt id='1550'> +7.7742881e+01 </wgt>
<wgt id='1551'> +7.7702718e+01 </wgt>
<wgt id='1552'> +7.7733554e+01 </wgt>
<wgt id='1553'> +7.7691364e+01 </wgt>
<wgt id='1554'> +7.7717405e+01 </wgt>
<wgt id='1555'> +7.7747403e+01 </wgt>
<wgt id='1556'> +7.7728383e+01 </wgt>
<wgt id='1557'> +7.7749234e+01 </wgt>
<wgt id='1558'> +7.7762121e+01 </wgt>
<wgt id='1559'> +7.7733738e+01 </wgt>
<wgt id='1560'> +7.7751812e+01 </wgt>
<wgt id='1561'> +7.7740416e+01 </wgt>
<wgt id='1562'> +7.7720177e+01 </wgt>
<wgt id='1563'> +7.7717211e+01 </wgt>
<wgt id='1564'> +7.7752138e+01 </wgt>
<wgt id='1565'> +7.7725594e+01 </wgt>
<wgt id='1566'> +7.7734224e+01 </wgt>
<wgt id='1567'> +7.5508846e+01 </wgt>
<wgt id='1568'> +7.9934336e+01 </wgt>
<wgt id='1569'> +7.6927430e+01 </wgt>
<wgt id='1570'> +7.7287964e+01 </wgt>
<wgt id='1571'> +7.6678877e+01 </wgt>
<wgt id='1572'> +7.7116287e+01 </wgt>
<wgt id='1573'> +7.7083162e+01 </wgt>
<wgt id='1574'> +7.6810139e+01 </wgt>
<wgt id='1575'> +7.7136204e+01 </wgt>
<wgt id='1576'> +7.7524518e+01 </wgt>
<wgt id='1577'> +7.7262657e+01 </wgt>
<wgt id='1578'> +7.6873070e+01 </wgt>
<wgt id='1579'> +7.7244149e+01 </wgt>
<wgt id='1580'> +7.6864181e+01 </wgt>
<wgt id='1581'> +7.5996719e+01 </wgt>
<wgt id='1582'> +7.6671008e+01 </wgt>
<wgt id='1583'> +7.6444314e+01 </wgt>
<wgt id='1584'> +7.6921382e+01 </wgt>
<wgt id='1585'> +7.6716785e+01 </wgt>
<wgt id='1586'> +7.7048839e+01 </wgt>
<wgt id='1587'> +7.7016584e+01 </wgt>
<wgt id='1588'> +7.6309004e+01 </wgt>
<wgt id='1589'> +7.7096332e+01 </wgt>
<wgt id='1590'> +7.7121133e+01 </wgt>
<wgt id='1591'> +7.6775615e+01 </wgt>
<wgt id='1592'> +7.7031666e+01 </wgt>
<wgt id='1593'> +7.7249770e+01 </wgt>
<wgt id='1594'> +7.7059950e+01 </wgt>
<wgt id='1595'> +7.6885052e+01 </wgt>
<wgt id='1596'> +7.6861359e+01 </wgt>
<wgt id='1597'> +7.6968147e+01 </wgt>
<wgt id='1598'> +7.7083120e+01 </wgt>
<wgt id='1599'> +7.7128976e+01 </wgt>
<wgt id='1600'> +7.7116991e+01 </wgt>
<wgt id='1601'> +7.7180931e+01 </wgt>
<wgt id='1602'> +7.7477182e+01 </wgt>
<wgt id='1603'> +7.7122832e+01 </wgt>
<wgt id='1604'> +7.6944692e+01 </wgt>
<wgt id='1605'> +7.6955352e+01 </wgt>
<wgt id='1606'> +7.6794265e+01 </wgt>
<wgt id='1607'> +7.6896268e+01 </wgt>
<wgt id='1608'> +7.7006203e+01 </wgt>
<wgt id='1609'> +7.6891815e+01 </wgt>
<wgt id='1610'> +7.7029528e+01 </wgt>
<wgt id='1611'> +7.6992941e+01 </wgt>
<wgt id='1612'> +7.6745096e+01 </wgt>
<wgt id='1613'> +7.6879936e+01 </wgt>
<wgt id='1614'> +7.6770221e+01 </wgt>
<wgt id='1615'> +7.6859867e+01 </wgt>
<wgt id='1616'> +7.6889967e+01 </wgt>
<wgt id='1617'> +7.7062429e+01 </wgt>
<wgt id='1618'> +7.6930646e+01 </wgt>
<wgt id='1619'> +7.6979604e+01 </wgt>
<wgt id='1620'> +7.6881336e+01 </wgt>
<wgt id='1621'> +7.6785838e+01 </wgt>
<wgt id='1622'> +7.7036557e+01 </wgt>
<wgt id='1623'> +7.6902134e+01 </wgt>
<wgt id='1624'> +7.6984242e+01 </wgt>
<wgt id='1625'> +7.6989218e+01 </wgt>
<wgt id='1626'> +7.6894224e+01 </wgt>
<wgt id='1627'> +7.6916715e+01 </wgt>
<wgt id='1628'> +7.6867708e+01 </wgt>
<wgt id='1629'> +7.6828355e+01 </wgt>
<wgt id='1630'> +7.7004032e+01 </wgt>
<wgt id='1631'> +7.6905913e+01 </wgt>
<wgt id='1632'> +7.6949637e+01 </wgt>
<wgt id='1633'> +7.6879706e+01 </wgt>
<wgt id='1634'> +7.7000136e+01 </wgt>
<wgt id='1635'> +7.6938026e+01 </wgt>
<wgt id='1636'> +7.6973555e+01 </wgt>
<wgt id='1637'> +7.6997868e+01 </wgt>
<wgt id='1638'> +7.6951528e+01 </wgt>
<wgt id='1639'> +7.6946692e+01 </wgt>
<wgt id='1640'> +7.6990706e+01 </wgt>
<wgt id='1641'> +7.6925100e+01 </wgt>
<wgt id='1642'> +7.6935001e+01 </wgt>
<wgt id='1643'> +7.6968276e+01 </wgt>
<wgt id='1644'> +7.6942058e+01 </wgt>
<wgt id='1645'> +7.6874702e+01 </wgt>
<wgt id='1646'> +7.6907182e+01 </wgt>
<wgt id='1647'> +7.6934368e+01 </wgt>
<wgt id='1648'> +7.6887553e+01 </wgt>
<wgt id='1649'> +7.6982796e+01 </wgt>
<wgt id='1650'> +7.6879584e+01 </wgt>
<wgt id='1651'> +7.6941292e+01 </wgt>
<wgt id='1652'> +7.6883625e+01 </wgt>
<wgt id='1653'> +7.6924609e+01 </wgt>
<wgt id='1654'> +7.6927151e+01 </wgt>
<wgt id='1655'> +7.6939227e+01 </wgt>
<wgt id='1656'> +7.6907286e+01 </wgt>
<wgt id='1657'> +7.6924437e+01 </wgt>
<wgt id='1658'> +7.6933076e+01 </wgt>
<wgt id='1659'> +7.6936251e+01 </wgt>
<wgt id='1660'> +7.6907122e+01 </wgt>
<wgt id='1661'> +7.6928584e+01 </wgt>
<wgt id='1662'> +7.6900604e+01 </wgt>
<wgt id='1663'> +7.6956482e+01 </wgt>
<wgt id='1664'> +7.6922896e+01 </wgt>
<wgt id='1665'> +7.6904762e+01 </wgt>
<wgt id='1666'> +7.6931741e+01 </wgt>
<wgt id='1667'> +7.6931874e+01 </wgt>
<wgt id='1668'> +7.6912842e+01 </wgt>
<wgt id='1669'> +7.6924628e+01 </wgt>
<wgt id='1670'> +7.4813279e+01 </wgt>
<wgt id='1671'> +7.8831101e+01 </wgt>
<wgt id='1672'> +7.7748412e+01 </wgt>
<wgt id='1673'> +7.7220905e+01 </wgt>
<wgt id='1674'> +7.7597076e+01 </wgt>
<wgt id='1675'> +7.7767058e+01 </wgt>
<wgt id='1676'> +7.9428209e+01 </wgt>
<wgt id='1677'> +7.8297053e+01 </wgt>
<wgt id='1678'> +7.7800331e+01 </wgt>
<wgt id='1679'> +7.7687940e+01 </wgt>
<wgt id='1680'> +7.7829081e+01 </wgt>
<wgt id='1681'> +7.7732990e+01 </wgt>
<wgt id='1682'> +7.7748251e+01 </wgt>
<wgt id='1683'> +7.8016418e+01 </wgt>
<wgt id='1684'> +7.7874890e+01 </wgt>
<wgt id='1685'> +7.7675048e+01 </wgt>
<wgt id='1686'> +7.7861354e+01 </wgt>
<wgt id='1687'> +7.7890765e+01 </wgt>
<wgt id='1688'> +7.7887675e+01 </wgt>
<wgt id='1689'> +7.6756615e+01 </wgt>
<wgt id='1690'> +7.7736090e+01 </wgt>
<wgt id='1691'> +7.7922463e+01 </wgt>
<wgt id='1692'> +7.7869143e+01 </wgt>
<wgt id='1693'> +7.7641960e+01 </wgt>
<wgt id='1694'> +7.7621289e+01 </wgt>
<wgt id='1695'> +7.7776492e+01 </wgt>
<wgt id='1696'> +7.7597711e+01 </wgt>
<wgt id='1697'> +7.7766988e+01 </wgt>
<wgt id='1698'> +7.7639409e+01 </wgt>
<wgt id='1699'> +7.7858689e+01 </wgt>
<wgt id='1700'> +7.7653992e+01 </wgt>
<wgt id='1701'> +7.7838231e+01 </wgt>
<wgt id='1702'> +7.7759826e+01 </wgt>
<wgt id='1703'> +7.5508846e+01 </wgt>
<wgt id='1704'> +7.9934336e+01 </wgt>
<wgt id='1705'> +7.6925941e+01 </wgt>
<wgt id='1706'> +7.7549587e+01 </wgt>
<wgt id='1707'> +7.6732624e+01 </wgt>
<wgt id='1708'> +7.6849475e+01 </wgt>
<wgt id='1709'> +7.6242510e+01 </wgt>
<wgt id='1710'> +7.6288436e+01 </wgt>
<wgt id='1711'> +7.6955000e+01 </wgt>
<wgt id='1712'> +7.6813591e+01 </wgt>
<wgt id='1713'> +7.6893654e+01 </wgt>
<wgt id='1714'> +7.6627053e+01 </wgt>
<wgt id='1715'> +7.7840725e+01 </wgt>
<wgt id='1716'> +7.6646924e+01 </wgt>
<wgt id='1717'> +7.6915241e+01 </wgt>
<wgt id='1718'> +7.6977928e+01 </wgt>
<wgt id='1719'> +7.6873837e+01 </wgt>
<wgt id='1720'> +7.6944751e+01 </wgt>
<wgt id='1721'> +7.6905438e+01 </wgt>
<wgt id='1722'> +7.6797872e+01 </wgt>
<wgt id='1723'> +7.6977639e+01 </wgt>
<wgt id='1724'> +7.7051525e+01 </wgt>
<wgt id='1725'> +7.6002983e+01 </wgt>
<wgt id='1726'> +7.6971427e+01 </wgt>
<wgt id='1727'> +7.7270960e+01 </wgt>
<wgt id='1728'> +7.6927840e+01 </wgt>
<wgt id='1729'> +7.6927113e+01 </wgt>
<wgt id='1730'> +7.6877829e+01 </wgt>
<wgt id='1731'> +7.6990332e+01 </wgt>
<wgt id='1732'> +7.6938600e+01 </wgt>
<wgt id='1733'> +7.6944546e+01 </wgt>
<wgt id='1734'> +7.6963554e+01 </wgt>
<wgt id='1735'> +7.6970027e+01 </wgt>
<wgt id='1736'> +7.4813279e+01 </wgt>
<wgt id='1737'> +7.8831101e+01 </wgt>
<wgt id='1738'> +8.8278979e+01 </wgt>
<wgt id='1739'> +8.8297693e+01 </wgt>
<wgt id='1740'> +8.8260141e+01 </wgt>
<wgt id='1741'> +8.8377041e+01 </wgt>
<wgt id='1742'> +8.8180498e+01 </wgt>
<wgt id='1743'> +8.8293294e+01 </wgt>
<wgt id='1744'> +8.8263820e+01 </wgt>
<wgt id='1745'> +8.8033776e+01 </wgt>
<wgt id='1746'> +8.8521341e+01 </wgt>
<wgt id='1747'> +8.8623248e+01 </wgt>
<wgt id='1748'> +8.7934781e+01 </wgt>
<wgt id='1749'> +8.8375066e+01 </wgt>
<wgt id='1750'> +8.8141386e+01 </wgt>
<wgt id='1751'> +8.7981477e+01 </wgt>
<wgt id='1752'> +8.8572192e+01 </wgt>
<wgt id='1753'> +8.8149826e+01 </wgt>
<wgt id='1754'> +8.8510980e+01 </wgt>
<wgt id='1755'> +8.8166609e+01 </wgt>
<wgt id='1756'> +8.8247773e+01 </wgt>
<wgt id='1757'> +8.8235410e+01 </wgt>
<wgt id='1758'> +8.8370678e+01 </wgt>
<wgt id='1759'> +8.8700218e+01 </wgt>
<wgt id='1760'> +8.7774475e+01 </wgt>
<wgt id='1761'> +8.7821494e+01 </wgt>
<wgt id='1762'> +8.8403430e+01 </wgt>
<wgt id='1763'> +8.8848877e+01 </wgt>
<wgt id='1764'> +8.7836864e+01 </wgt>
<wgt id='1765'> +8.7729079e+01 </wgt>
<wgt id='1766'> +8.8710747e+01 </wgt>
<wgt id='1767'> +8.8278979e+01 </wgt>
<wgt id='1768'> +8.8261607e+01 </wgt>
<wgt id='1769'> +8.8328421e+01 </wgt>
<wgt id='1770'> +8.8254092e+01 </wgt>
<wgt id='1771'> +8.8314247e+01 </wgt>
<wgt id='1772'> +8.8864772e+01 </wgt>
<wgt id='1773'> +8.7793860e+01 </wgt>
<wgt id='1774'> +8.8063137e+01 </wgt>
<wgt id='1775'> +8.8492865e+01 </wgt>
<wgt id='1776'> +8.7756617e+01 </wgt>
<wgt id='1777'> +8.8838056e+01 </wgt>
<wgt id='1778'> +8.8297267e+01 </wgt>
<wgt id='1779'> +8.8821561e+01 </wgt>
<wgt id='1780'> +8.6915685e+01 </wgt>
<wgt id='1781'> +8.4948595e+01 </wgt>
<wgt id='1782'> +8.4992533e+01 </wgt>
<wgt id='1783'> +8.4930738e+01 </wgt>
<wgt id='1784'> +8.5066703e+01 </wgt>
<wgt id='1785'> +8.4856198e+01 </wgt>
<wgt id='1786'> +8.5057171e+01 </wgt>
<wgt id='1787'> +8.4865332e+01 </wgt>
<wgt id='1788'> +8.4760212e+01 </wgt>
<wgt id='1789'> +8.5157692e+01 </wgt>
<wgt id='1790'> +8.5209458e+01 </wgt>
<wgt id='1791'> +8.4707983e+01 </wgt>
<wgt id='1792'> +8.5050335e+01 </wgt>
<wgt id='1793'> +8.4871474e+01 </wgt>
<wgt id='1794'> +8.4611331e+01 </wgt>
<wgt id='1795'> +8.5318125e+01 </wgt>
<wgt id='1796'> +8.4932804e+01 </wgt>
<wgt id='1797'> +8.5169127e+01 </wgt>
<wgt id='1798'> +8.4945008e+01 </wgt>
<wgt id='1799'> +8.4958686e+01 </wgt>
<wgt id='1800'> +8.5125916e+01 </wgt>
<wgt id='1801'> +8.4788588e+01 </wgt>
<wgt id='1802'> +8.4209219e+01 </wgt>
<wgt id='1803'> +8.5621884e+01 </wgt>
<wgt id='1804'> +8.5135215e+01 </wgt>
<wgt id='1805'> +8.4809272e+01 </wgt>
<wgt id='1806'> +8.4620915e+01 </wgt>
<wgt id='1807'> +8.5113369e+01 </wgt>
<wgt id='1808'> +8.4697044e+01 </wgt>
<wgt id='1809'> +8.5099252e+01 </wgt>
<wgt id='1810'> +8.4875073e+01 </wgt>
<wgt id='1811'> +8.4841225e+01 </wgt>
<wgt id='1812'> +8.4805529e+01 </wgt>
<wgt id='1813'> +8.4806988e+01 </wgt>
<wgt id='1814'> +8.4915702e+01 </wgt>
<wgt id='1815'> +8.4914724e+01 </wgt>
<wgt id='1816'> +8.4646667e+01 </wgt>
<wgt id='1817'> +8.4691466e+01 </wgt>
<wgt id='1818'> +8.5274113e+01 </wgt>
<wgt id='1819'> +8.3638827e+01 </wgt>
<wgt id='1820'> +8.5368129e+01 </wgt>
<wgt id='1821'> +8.3874744e+01 </wgt>
<wgt id='1822'> +8.6150504e+01 </wgt>
<wgt id='1823'> +8.3453567e+01 </wgt>
<wgt id='1824'> +7.9321347e+01 </wgt>
<wgt id='1825'> +7.9306275e+01 </wgt>
<wgt id='1826'> +7.9290969e+01 </wgt>
<wgt id='1827'> +7.9275528e+01 </wgt>
<wgt id='1828'> +7.9260349e+01 </wgt>
<wgt id='1829'> +7.9245110e+01 </wgt>
<wgt id='1830'> +7.9229776e+01 </wgt>
<wgt id='1831'> +7.9214057e+01 </wgt>
<wgt id='1832'> +7.9198984e+01 </wgt>
<wgt id='1833'> +7.9183647e+01 </wgt>
<wgt id='1834'> +7.9167994e+01 </wgt>
<wgt id='1835'> +7.9153323e+01 </wgt>
<wgt id='1836'> +7.9138007e+01 </wgt>
<wgt id='1837'> +7.9122902e+01 </wgt>
<wgt id='1838'> +7.9107526e+01 </wgt>
<wgt id='1839'> +7.9092157e+01 </wgt>
<wgt id='1840'> +7.9076941e+01 </wgt>
<wgt id='1841'> +7.9061640e+01 </wgt>
<wgt id='1842'> +7.9046154e+01 </wgt>
<wgt id='1843'> +7.9030877e+01 </wgt>
<wgt id='1844'> +7.9015570e+01 </wgt>
<wgt id='1845'> +7.9000554e+01 </wgt>
<wgt id='1846'> +7.8985251e+01 </wgt>
<wgt id='1847'> +7.8970199e+01 </wgt>
<wgt id='1848'> +7.8955208e+01 </wgt>
<wgt id='1849'> +7.8939549e+01 </wgt>
<wgt id='1850'> +7.8924263e+01 </wgt>
<wgt id='1851'> +7.8908919e+01 </wgt>
<wgt id='1852'> +7.8893883e+01 </wgt>
<wgt id='1853'> +7.8878237e+01 </wgt>
<wgt id='1854'> +7.8862977e+01 </wgt>
<wgt id='1855'> +7.6376846e+01 </wgt>
<wgt id='1856'> +7.6710724e+01 </wgt>
<wgt id='1857'> +7.6123634e+01 </wgt>
<wgt id='1858'> +7.6566337e+01 </wgt>
<wgt id='1859'> +7.6526205e+01 </wgt>
<wgt id='1860'> +7.6259859e+01 </wgt>
<wgt id='1861'> +7.6602094e+01 </wgt>
<wgt id='1862'> +7.6986144e+01 </wgt>
<wgt id='1863'> +7.6710821e+01 </wgt>
<wgt id='1864'> +7.6325582e+01 </wgt>
<wgt id='1865'> +7.6687345e+01 </wgt>
<wgt id='1866'> +7.6339195e+01 </wgt>
<wgt id='1867'> +7.5463786e+01 </wgt>
<wgt id='1868'> +7.6132892e+01 </wgt>
<wgt id='1869'> +7.5892554e+01 </wgt>
<wgt id='1870'> +7.6335874e+01 </wgt>
<wgt id='1871'> +7.6193397e+01 </wgt>
<wgt id='1872'> +7.6487249e+01 </wgt>
<wgt id='1873'> +7.6459050e+01 </wgt>
<wgt id='1874'> +7.5779273e+01 </wgt>
<wgt id='1875'> +7.6563427e+01 </wgt>
<wgt id='1876'> +7.6557005e+01 </wgt>
<wgt id='1877'> +7.6223629e+01 </wgt>
<wgt id='1878'> +7.6486939e+01 </wgt>
<wgt id='1879'> +7.6686132e+01 </wgt>
<wgt id='1880'> +7.6491125e+01 </wgt>
<wgt id='1881'> +7.6317601e+01 </wgt>
<wgt id='1882'> +7.6330606e+01 </wgt>
<wgt id='1883'> +7.6425516e+01 </wgt>
<wgt id='1884'> +7.6521548e+01 </wgt>
<wgt id='1885'> +7.6567279e+01 </wgt>
<wgt id='1886'> +7.6586113e+01 </wgt>
<wgt id='1887'> +7.6621510e+01 </wgt>
<wgt id='1888'> +7.6915904e+01 </wgt>
<wgt id='1889'> +7.6570643e+01 </wgt>
<wgt id='1890'> +7.6389140e+01 </wgt>
<wgt id='1891'> +7.6406312e+01 </wgt>
<wgt id='1892'> +7.6246653e+01 </wgt>
<wgt id='1893'> +7.6343860e+01 </wgt>
<wgt id='1894'> +7.6447571e+01 </wgt>
<wgt id='1895'> +7.6340816e+01 </wgt>
<wgt id='1896'> +7.6472484e+01 </wgt>
<wgt id='1897'> +7.6438703e+01 </wgt>
<wgt id='1898'> +7.6205864e+01 </wgt>
<wgt id='1899'> +7.6328902e+01 </wgt>
<wgt id='1900'> +7.6218605e+01 </wgt>
<wgt id='1901'> +7.6315456e+01 </wgt>
<wgt id='1902'> +7.6335946e+01 </wgt>
<wgt id='1903'> +7.6514785e+01 </wgt>
<wgt id='1904'> +7.6377035e+01 </wgt>
<wgt id='1905'> +7.6430501e+01 </wgt>
<wgt id='1906'> +7.6329775e+01 </wgt>
<wgt id='1907'> +7.6236055e+01 </wgt>
<wgt id='1908'> +7.6485337e+01 </wgt>
<wgt id='1909'> +7.6354324e+01 </wgt>
<wgt id='1910'> +7.6435268e+01 </wgt>
<wgt id='1911'> +7.6431108e+01 </wgt>
<wgt id='1912'> +7.6344073e+01 </wgt>
<wgt id='1913'> +7.6371903e+01 </wgt>
<wgt id='1914'> +7.6321436e+01 </wgt>
<wgt id='1915'> +7.6282184e+01 </wgt>
<wgt id='1916'> +7.6454040e+01 </wgt>
<wgt id='1917'> +7.6353934e+01 </wgt>
<wgt id='1918'> +7.6396417e+01 </wgt>
<wgt id='1919'> +7.6331196e+01 </wgt>
<wgt id='1920'> +7.6447595e+01 </wgt>
<wgt id='1921'> +7.6386911e+01 </wgt>
<wgt id='1922'> +7.6419410e+01 </wgt>
<wgt id='1923'> +7.6447334e+01 </wgt>
<wgt id='1924'> +7.6397758e+01 </wgt>
<wgt id='1925'> +7.6395327e+01 </wgt>
<wgt id='1926'> +7.6441390e+01 </wgt>
<wgt id='1927'> +7.6372785e+01 </wgt>
<wgt id='1928'> +7.6382683e+01 </wgt>
<wgt id='1929'> +7.6417002e+01 </wgt>
<wgt id='1930'> +7.6391260e+01 </wgt>
<wgt id='1931'> +7.6328515e+01 </wgt>
<wgt id='1932'> +7.6357782e+01 </wgt>
<wgt id='1933'> +7.6386466e+01 </wgt>
<wgt id='1934'> +7.6337678e+01 </wgt>
<wgt id='1935'> +7.6428258e+01 </wgt>
<wgt id='1936'> +7.6333064e+01 </wgt>
<wgt id='1937'> +7.6391931e+01 </wgt>
<wgt id='1938'> +7.6333462e+01 </wgt>
<wgt id='1939'> +7.6372649e+01 </wgt>
<wgt id='1940'> +7.6377782e+01 </wgt>
<wgt id='1941'> +7.6393205e+01 </wgt>
<wgt id='1942'> +7.6355103e+01 </wgt>
<wgt id='1943'> +7.6372073e+01 </wgt>
<wgt id='1944'> +7.6380647e+01 </wgt>
<wgt id='1945'> +7.6384962e+01 </wgt>
<wgt id='1946'> +7.6353761e+01 </wgt>
<wgt id='1947'> +7.6375957e+01 </wgt>
<wgt id='1948'> +7.6350878e+01 </wgt>
<wgt id='1949'> +7.6402602e+01 </wgt>
<wgt id='1950'> +7.6372250e+01 </wgt>
<wgt id='1951'> +7.6355269e+01 </wgt>
<wgt id='1952'> +7.6381528e+01 </wgt>
<wgt id='1953'> +7.6380861e+01 </wgt>
<wgt id='1954'> +7.6363727e+01 </wgt>
<wgt id='1955'> +7.6374543e+01 </wgt>
<wgt id='1956'> +7.6376349e+01 </wgt>
<wgt id='1957'> +7.6379552e+01 </wgt>
<wgt id='1958'> +7.6377370e+01 </wgt>
<wgt id='1959'> +7.6377455e+01 </wgt>
<wgt id='1960'> +7.6378369e+01 </wgt>
<wgt id='1961'> +7.6377066e+01 </wgt>
<wgt id='1962'> +7.6380133e+01 </wgt>
</rwgt>
</event>
<event npLO=" -1 " npNLO=" 1 ">
 7      1 +1.5146096e+02 3.00919340e+01 7.54677110e-03 1.37960590e-01
        5 -1    0    0  502    0 +0.0000000000e+00 +0.0000000000e+00 +3.5624290000e+01 3.5624290000e+01 0.0000000000e+00 0.0000e+00 9.0000e+00
       21 -1    0    0  501  502 +0.0000000000e+00 +0.0000000000e+00 -1.9293155000e+02 1.9293155000e+02 0.0000000000e+00 0.0000e+00 9.0000e+00
       23  2    1    2    0    0 -1.9939087000e+01 -4.8774816000e+01 -9.8803617000e+01 1.4471169000e+02 9.1666615000e+01 0.0000e+00 0.0000e+00
       11  1    3    3    0    0 -5.3564589000e+01 -1.0220509000e+01 -4.8899147000e+01 7.3244458000e+01 0.0000000000e+00 0.0000e+00 9.0000e+00
      -11  1    3    3    0    0 +3.3625502000e+01 -3.8554307000e+01 -4.9904469000e+01 7.1467230000e+01 0.0000000000e+00 0.0000e+00 9.0000e+00
       22  1    1    2    0    0 +1.2649002000e+01 +1.8046593000e+01 -6.4554807000e+00 2.2964102000e+01 0.0000000000e+00 0.0000e+00 9.0000e+00
        5  1    1    2  501    0 +7.2900844000e+00 +3.0728223000e+01 -5.2048160000e+01 6.0880046000e+01 0.0000000000e+00 0.0000e+00 9.0000e+00
#aMCatNLO 1  0  0  2  1 0.11537351E+02 0.00000000E+00 -9  7  0 0.00000000E+00 0.00000000E+00 0.00000000E+00 0.00000000E+00 0.00000000E+00
<rwgt>
<wgt id='1001'> +1.5146000e+02 </wgt>
<wgt id='1002'> +1.5146000e+02 </wgt>
<wgt id='1003'> +1.3748000e+02 </wgt>
<wgt id='1004'> +1.5133000e+02 </wgt>
<wgt id='1005'> +1.5000000e+02 </wgt>
<wgt id='1006'> +1.4995000e+02 </wgt>
<wgt id='1007'> +1.2990000e+02 </wgt>
<wgt id='1008'> +1.5341000e+02 </wgt>
<wgt id='1009'> +1.5364000e+02 </wgt>
<wgt id='1010'> +1.5287000e+02 </wgt>
<wgt id='1011'> +1.5175000e+02 </wgt>
<wgt id='1012'> +1.4404000e+02 </wgt>
<wgt id='1013'> +1.4583000e+02 </wgt>
<wgt id='1014'> +1.5517000e+02 </wgt>
<wgt id='1015'> +1.5505000e+02 </wgt>
<wgt id='1016'> +1.4544000e+02 </wgt>
<wgt id='1017'> +1.5251000e+02 </wgt>
<wgt id='1018'> +1.5437000e+02 </wgt>
<wgt id='1019'> +1.4836000e+02 </wgt>
<wgt id='1020'> +1.5039000e+02 </wgt>
<wgt id='1021'> +1.5476000e+02 </wgt>
<wgt id='1022'> +1.5500000e+02 </wgt>
<wgt id='1023'> +1.5251000e+02 </wgt>
<wgt id='1024'> +1.4955000e+02 </wgt>
<wgt id='1025'> +1.6523000e+02 </wgt>
<wgt id='1026'> +1.5022000e+02 </wgt>
<wgt id='1027'> +1.5381000e+02 </wgt>
<wgt id='1028'> +1.4904000e+02 </wgt>
<wgt id='1029'> +1.4966000e+02 </wgt>
<wgt id='1030'> +1.4960000e+02 </wgt>
<wgt id='1031'> +1.4982000e+02 </wgt>
<wgt id='1032'> +1.5547000e+02 </wgt>
<wgt id='1033'> +1.5057000e+02 </wgt>
<wgt id='1034'> +1.4573000e+02 </wgt>
<wgt id='1035'> +1.5368000e+02 </wgt>
<wgt id='1036'> +1.5250000e+02 </wgt>
<wgt id='1037'> +1.5610000e+02 </wgt>
<wgt id='1038'> +1.5714000e+02 </wgt>
<wgt id='1039'> +1.5399000e+02 </wgt>
<wgt id='1040'> +1.5371000e+02 </wgt>
<wgt id='1041'> +1.4651000e+02 </wgt>
<wgt id='1042'> +1.5424000e+02 </wgt>
<wgt id='1043'> +1.5200000e+02 </wgt>
<wgt id='1044'> +1.5321000e+02 </wgt>
<wgt id='1045'> +1.5342000e+02 </wgt>
<wgt id='1046'> +1.4973000e+02 </wgt>
<wgt id='1047'> +1.5200000e+02 </wgt>
<wgt id='1048'> +1.5429000e+02 </wgt>
<wgt id='1049'> +1.4889000e+02 </wgt>
<wgt id='1050'> +1.4895000e+02 </wgt>
<wgt id='1051'> +1.5162000e+02 </wgt>
<wgt id='1052'> +1.5168000e+02 </wgt>
<wgt id='1053'> +1.5145000e+02 </wgt>
<wgt id='1054'> +1.4988000e+02 </wgt>
<wgt id='1055'> +1.5376000e+02 </wgt>
<wgt id='1056'> +1.5201000e+02 </wgt>
<wgt id='1057'> +1.5114000e+02 </wgt>
<wgt id='1058'> +1.4674000e+02 </wgt>
<wgt id='1059'> +1.5897000e+02 </wgt>
<wgt id='1060'> +1.4940000e+02 </wgt>
<wgt id='1061'> +1.5336000e+02 </wgt>
<wgt id='1062'> +1.5122000e+02 </wgt>
<wgt id='1063'> +1.5332000e+02 </wgt>
<wgt id='1064'> +1.5149000e+02 </wgt>
<wgt id='1065'> +1.5469000e+02 </wgt>
<wgt id='1066'> +1.4785000e+02 </wgt>
<wgt id='1067'> +1.5407000e+02 </wgt>
<wgt id='1068'> +1.5174000e+02 </wgt>
<wgt id='1069'> +1.6116000e+02 </wgt>
<wgt id='1070'> +1.4853000e+02 </wgt>
<wgt id='1071'> +1.4683000e+02 </wgt>
<wgt id='1072'> +1.5140000e+02 </wgt>
<wgt id='1073'> +1.5513000e+02 </wgt>
<wgt id='1074'> +1.5100000e+02 </wgt>
<wgt id='1075'> +1.3953000e+02 </wgt>
<wgt id='1076'> +1.5243000e+02 </wgt>
<wgt id='1077'> +1.5011000e+02 </wgt>
<wgt id='1078'> +1.4637000e+02 </wgt>
<wgt id='1079'> +1.5266000e+02 </wgt>
<wgt id='1080'> +1.5823000e+02 </wgt>
<wgt id='1081'> +1.5080000e+02 </wgt>
<wgt id='1082'> +1.5248000e+02 </wgt>
<wgt id='1083'> +1.5231000e+02 </wgt>
<wgt id='1084'> +1.4944000e+02 </wgt>
<wgt id='1085'> +1.5388000e+02 </wgt>
<wgt id='1086'> +1.5196000e+02 </wgt>
<wgt id='1087'> +1.4618000e+02 </wgt>
<wgt id='1088'> +1.5036000e+02 </wgt>
<wgt id='1089'> +1.5008000e+02 </wgt>
<wgt id='1090'> +1.5172000e+02 </wgt>
<wgt id='1091'> +1.5688000e+02 </wgt>
<wgt id='1092'> +1.5025000e+02 </wgt>
<wgt id='1093'> +1.4825000e+02 </wgt>
<wgt id='1094'> +1.5570000e+02 </wgt>
<wgt id='1095'> +1.5057000e+02 </wgt>
<wgt id='1096'> +1.5492000e+02 </wgt>
<wgt id='1097'> +1.4770000e+02 </wgt>
<wgt id='1098'> +1.5487000e+02 </wgt>
<wgt id='1099'> +1.5219000e+02 </wgt>
<wgt id='1100'> +1.5926000e+02 </wgt>
<wgt id='1101'> +1.5688000e+02 </wgt>
<wgt id='1102'> +1.5167000e+02 </wgt>
<wgt id='1103'> +1.4804000e+02 </wgt>
<wgt id='1104'> +1.5376000e+02 </wgt>
<wgt id='1105'> +1.5146096e+02 </wgt>
<wgt id='1106'> +6.4059032e+01 </wgt>
<wgt id='1107'> +9.1992280e+01 </wgt>
<wgt id='1108'> +9.5400580e+01 </wgt>
<wgt id='1109'> +8.0707660e+01 </wgt>
<wgt id='1110'> +1.1586967e+02 </wgt>
<wgt id='1111'> +5.1909275e+01 </wgt>
<wgt id='1112'> +4.3901293e+01 </wgt>
<wgt id='1113'> +6.3068742e+01 </wgt>
<wgt id='1114'> +7.0686780e+01 </wgt>
<wgt id='1115'> +6.8570685e+01 </wgt>
<wgt id='1116'> +7.0349651e+01 </wgt>
<wgt id='1117'> +7.1767276e+01 </wgt>
<wgt id='1118'> +7.1009737e+01 </wgt>
<wgt id='1119'> +7.1167380e+01 </wgt>
<wgt id='1120'> +6.9904651e+01 </wgt>
<wgt id='1121'> +7.0003255e+01 </wgt>
<wgt id='1122'> +7.0157313e+01 </wgt>
<wgt id='1123'> +7.2195779e+01 </wgt>
<wgt id='1124'> +7.2063569e+01 </wgt>
<wgt id='1125'> +7.2336479e+01 </wgt>
<wgt id='1126'> +6.9023987e+01 </wgt>
<wgt id='1127'> +7.0409863e+01 </wgt>
<wgt id='1128'> +6.8954538e+01 </wgt>
<wgt id='1129'> +7.3493551e+01 </wgt>
<wgt id='1130'> +7.2779039e+01 </wgt>
<wgt id='1131'> +7.2248195e+01 </wgt>
<wgt id='1132'> +7.0632289e+01 </wgt>
<wgt id='1133'> +7.0487974e+01 </wgt>
<wgt id='1134'> +7.1960425e+01 </wgt>
<wgt id='1135'> +6.8749855e+01 </wgt>
<wgt id='1136'> +7.0737102e+01 </wgt>
<wgt id='1137'> +7.0077284e+01 </wgt>
<wgt id='1138'> +6.9390021e+01 </wgt>
<wgt id='1139'> +6.9568539e+01 </wgt>
<wgt id='1140'> +7.1601748e+01 </wgt>
<wgt id='1141'> +7.0763494e+01 </wgt>
<wgt id='1142'> +6.8918559e+01 </wgt>
<wgt id='1143'> +7.1836657e+01 </wgt>
<wgt id='1144'> +7.1916897e+01 </wgt>
<wgt id='1145'> +7.0516511e+01 </wgt>
<wgt id='1146'> +7.0354107e+01 </wgt>
<wgt id='1147'> +6.9592043e+01 </wgt>
<wgt id='1148'> +6.9023933e+01 </wgt>
<wgt id='1149'> +7.3237139e+01 </wgt>
<wgt id='1150'> +6.9756806e+01 </wgt>
<wgt id='1151'> +7.2742362e+01 </wgt>
<wgt id='1152'> +7.1368870e+01 </wgt>
<wgt id='1153'> +7.0210797e+01 </wgt>
<wgt id='1154'> +7.0256517e+01 </wgt>
<wgt id='1155'> +7.1510436e+01 </wgt>
<wgt id='1156'> +6.8035194e+01 </wgt>
<wgt id='1157'> +7.0191447e+01 </wgt>
<wgt id='1158'> +6.8661516e+01 </wgt>
<wgt id='1159'> +7.0911089e+01 </wgt>
<wgt id='1160'> +7.1399711e+01 </wgt>
<wgt id='1161'> +6.8112417e+01 </wgt>
<wgt id='1162'> +6.8735782e+01 </wgt>
<wgt id='1163'> +7.1774638e+01 </wgt>
<wgt id='1164'> +7.2091943e+01 </wgt>
<wgt id='1165'> +6.9612286e+01 </wgt>
<wgt id='1166'> +6.9785816e+01 </wgt>
<wgt id='1167'> +7.0486362e+01 </wgt>
<wgt id='1168'> +7.0098493e+01 </wgt>
<wgt id='1169'> +6.9249030e+01 </wgt>
<wgt id='1170'> +7.0036373e+01 </wgt>
<wgt id='1171'> +7.0636828e+01 </wgt>
<wgt id='1172'> +6.9491909e+01 </wgt>
<wgt id='1173'> +7.3942888e+01 </wgt>
<wgt id='1174'> +7.1033801e+01 </wgt>
<wgt id='1175'> +7.0473259e+01 </wgt>
<wgt id='1176'> +7.0336844e+01 </wgt>
<wgt id='1177'> +7.0533762e+01 </wgt>
<wgt id='1178'> +6.9725209e+01 </wgt>
<wgt id='1179'> +7.0612530e+01 </wgt>
<wgt id='1180'> +7.0435227e+01 </wgt>
<wgt id='1181'> +6.8071070e+01 </wgt>
<wgt id='1182'> +7.2163107e+01 </wgt>
<wgt id='1183'> +6.9437559e+01 </wgt>
<wgt id='1184'> +6.8009650e+01 </wgt>
<wgt id='1185'> +7.3032353e+01 </wgt>
<wgt id='1186'> +7.3244409e+01 </wgt>
<wgt id='1187'> +7.2089458e+01 </wgt>
<wgt id='1188'> +7.3440557e+01 </wgt>
<wgt id='1189'> +7.1845867e+01 </wgt>
<wgt id='1190'> +7.2370881e+01 </wgt>
<wgt id='1191'> +6.9915736e+01 </wgt>
<wgt id='1192'> +7.1287912e+01 </wgt>
<wgt id='1193'> +7.1251517e+01 </wgt>
<wgt id='1194'> +6.8993739e+01 </wgt>
<wgt id='1195'> +6.8166325e+01 </wgt>
<wgt id='1196'> +7.2779039e+01 </wgt>
<wgt id='1197'> +6.9891600e+01 </wgt>
<wgt id='1198'> +7.1349514e+01 </wgt>
<wgt id='1199'> +7.3685391e+01 </wgt>
<wgt id='1200'> +6.7015628e+01 </wgt>
<wgt id='1201'> +7.2239293e+01 </wgt>
<wgt id='1202'> +7.0768170e+01 </wgt>
<wgt id='1203'> +7.3995138e+01 </wgt>
<wgt id='1204'> +6.8632703e+01 </wgt>
<wgt id='1205'> +6.9517871e+01 </wgt>
<wgt id='1206'> +7.2671714e+01 </wgt>
<wgt id='1207'> +7.2339222e+01 </wgt>
<wgt id='1208'> +7.0219014e+01 </wgt>
<wgt id='1209'> +6.9512151e+01 </wgt>
<wgt id='1210'> +6.9939476e+01 </wgt>
<wgt id='1211'> +6.8816804e+01 </wgt>
<wgt id='1212'> +7.1570248e+01 </wgt>
<wgt id='1213'> +7.1203176e+01 </wgt>
<wgt id='1214'> +7.1757569e+01 </wgt>
<wgt id='1215'> +7.6263314e+01 </wgt>
<wgt id='1216'> +7.0146764e+01 </wgt>
<wgt id='1217'> +7.0410334e+01 </wgt>
<wgt id='1218'> +6.9873234e+01 </wgt>
<wgt id='1219'> +7.0444782e+01 </wgt>
<wgt id='1220'> +7.0311116e+01 </wgt>
<wgt id='1221'> +7.0559208e+01 </wgt>
<wgt id='1222'> +7.0250901e+01 </wgt>
<wgt id='1223'> +7.0388108e+01 </wgt>
<wgt id='1224'> +6.9928094e+01 </wgt>
<wgt id='1225'> +7.0149153e+01 </wgt>
<wgt id='1226'> +6.9841669e+01 </wgt>
<wgt id='1227'> +7.0268693e+01 </wgt>
<wgt id='1228'> +7.0722350e+01 </wgt>
<wgt id='1229'> +6.9574623e+01 </wgt>
<wgt id='1230'> +7.0507872e+01 </wgt>
<wgt id='1231'> +7.0341296e+01 </wgt>
<wgt id='1232'> +7.0213605e+01 </wgt>
<wgt id='1233'> +7.0533122e+01 </wgt>
<wgt id='1234'> +7.0330777e+01 </wgt>
<wgt id='1235'> +6.9753840e+01 </wgt>
<wgt id='1236'> +6.9941111e+01 </wgt>
<wgt id='1237'> +6.9812165e+01 </wgt>
<wgt id='1238'> +7.0123711e+01 </wgt>
<wgt id='1239'> +6.9973896e+01 </wgt>
<wgt id='1240'> +6.9994255e+01 </wgt>
<wgt id='1241'> +7.0138881e+01 </wgt>
<wgt id='1242'> +7.0268291e+01 </wgt>
<wgt id='1243'> +7.0172173e+01 </wgt>
<wgt id='1244'> +6.9963472e+01 </wgt>
<wgt id='1245'> +7.0150265e+01 </wgt>
<wgt id='1246'> +7.0197878e+01 </wgt>
<wgt id='1247'> +7.0163284e+01 </wgt>
<wgt id='1248'> +7.0184993e+01 </wgt>
<wgt id='1249'> +7.0177234e+01 </wgt>
<wgt id='1250'> +7.0183229e+01 </wgt>
<wgt id='1251'> +7.0173690e+01 </wgt>
<wgt id='1252'> +7.0156823e+01 </wgt>
<wgt id='1253'> +7.0148504e+01 </wgt>
<wgt id='1254'> +7.0142808e+01 </wgt>
<wgt id='1255'> +7.0171642e+01 </wgt>
<wgt id='1256'> +7.0148997e+01 </wgt>
<wgt id='1257'> +7.0130583e+01 </wgt>
<wgt id='1258'> +7.0100380e+01 </wgt>
<wgt id='1259'> +7.0102966e+01 </wgt>
<wgt id='1260'> +7.0179362e+01 </wgt>
<wgt id='1261'> +7.0184139e+01 </wgt>
<wgt id='1262'> +7.0155137e+01 </wgt>
<wgt id='1263'> +7.0126870e+01 </wgt>
<wgt id='1264'> +7.0168829e+01 </wgt>
<wgt id='1265'> +7.0126838e+01 </wgt>
<wgt id='1266'> +7.0144526e+01 </wgt>
<wgt id='1267'> +7.0194827e+01 </wgt>
<wgt id='1268'> +7.0144641e+01 </wgt>
<wgt id='1269'> +7.0145841e+01 </wgt>
<wgt id='1270'> +7.0134916e+01 </wgt>
<wgt id='1271'> +7.0176153e+01 </wgt>
<wgt id='1272'> +7.0161924e+01 </wgt>
<wgt id='1273'> +7.0145870e+01 </wgt>
<wgt id='1274'> +7.0137454e+01 </wgt>
<wgt id='1275'> +7.0158439e+01 </wgt>
<wgt id='1276'> +7.0152344e+01 </wgt>
<wgt id='1277'> +7.0184747e+01 </wgt>
<wgt id='1278'> +7.0152938e+01 </wgt>
<wgt id='1279'> +7.0147027e+01 </wgt>
<wgt id='1280'> +7.0148196e+01 </wgt>
<wgt id='1281'> +7.0152690e+01 </wgt>
<wgt id='1282'> +7.0156982e+01 </wgt>
<wgt id='1283'> +7.0127663e+01 </wgt>
<wgt id='1284'> +7.0145783e+01 </wgt>
<wgt id='1285'> +7.0129261e+01 </wgt>
<wgt id='1286'> +7.0120254e+01 </wgt>
<wgt id='1287'> +7.0144756e+01 </wgt>
<wgt id='1288'> +7.0162085e+01 </wgt>
<wgt id='1289'> +7.0150813e+01 </wgt>
<wgt id='1290'> +7.0150708e+01 </wgt>
<wgt id='1291'> +7.0155420e+01 </wgt>
<wgt id='1292'> +7.0149142e+01 </wgt>
<wgt id='1293'> +7.0142801e+01 </wgt>
<wgt id='1294'> +7.0158532e+01 </wgt>
<wgt id='1295'> +7.0147548e+01 </wgt>
<wgt id='1296'> +7.0145009e+01 </wgt>
<wgt id='1297'> +7.0145988e+01 </wgt>
<wgt id='1298'> +7.0146662e+01 </wgt>
<wgt id='1299'> +7.0138095e+01 </wgt>
<wgt id='1300'> +7.0138337e+01 </wgt>
<wgt id='1301'> +7.0142549e+01 </wgt>
<wgt id='1302'> +7.0136899e+01 </wgt>
<wgt id='1303'> +7.0141322e+01 </wgt>
<wgt id='1304'> +7.0146817e+01 </wgt>
<wgt id='1305'> +7.0147133e+01 </wgt>
<wgt id='1306'> +7.0145193e+01 </wgt>
<wgt id='1307'> +7.0152801e+01 </wgt>
<wgt id='1308'> +7.0151134e+01 </wgt>
<wgt id='1309'> +7.0145113e+01 </wgt>
<wgt id='1310'> +7.0149479e+01 </wgt>
<wgt id='1311'> +7.0149306e+01 </wgt>
<wgt id='1312'> +7.0153152e+01 </wgt>
<wgt id='1313'> +7.0144772e+01 </wgt>
<wgt id='1314'> +7.0153944e+01 </wgt>
<wgt id='1315'> +7.0150999e+01 </wgt>
<wgt id='1316'> +7.0148815e+01 </wgt>
<wgt id='1317'> +6.7382957e+01 </wgt>
<wgt id='1318'> +7.3257174e+01 </wgt>
<wgt id='1319'> +6.0032559e+01 </wgt>
<wgt id='1320'> +6.8875530e+01 </wgt>
<wgt id='1321'> +6.8925549e+01 </wgt>
<wgt id='1322'> +6.9068318e+01 </wgt>
<wgt id='1323'> +7.0745704e+01 </wgt>
<wgt id='1324'> +6.7802275e+01 </wgt>
<wgt id='1325'> +6.9012252e+01 </wgt>
<wgt id='1326'> +6.8723469e+01 </wgt>
<wgt id='1327'> +7.0085870e+01 </wgt>
<wgt id='1328'> +6.8142762e+01 </wgt>
<wgt id='1329'> +6.7240164e+01 </wgt>
<wgt id='1330'> +6.9933808e+01 </wgt>
<wgt id='1331'> +7.0453031e+01 </wgt>
<wgt id='1332'> +6.7915983e+01 </wgt>
<wgt id='1333'> +6.5918507e+01 </wgt>
<wgt id='1334'> +7.0613976e+01 </wgt>
<wgt id='1335'> +6.9846450e+01 </wgt>
<wgt id='1336'> +6.8216192e+01 </wgt>
<wgt id='1337'> +6.7913363e+01 </wgt>
<wgt id='1338'> +7.0015899e+01 </wgt>
<wgt id='1339'> +7.0075845e+01 </wgt>
<wgt id='1340'> +6.7557453e+01 </wgt>
<wgt id='1341'> +6.9169946e+01 </wgt>
<wgt id='1342'> +6.8271072e+01 </wgt>
<wgt id='1343'> +6.8349220e+01 </wgt>
<wgt id='1344'> +6.9363906e+01 </wgt>
<wgt id='1345'> +6.8039641e+01 </wgt>
<wgt id='1346'> +6.9616545e+01 </wgt>
<wgt id='1347'> +6.8595831e+01 </wgt>
<wgt id='1348'> +6.9255659e+01 </wgt>
<wgt id='1349'> +6.8214471e+01 </wgt>
<wgt id='1350'> +6.9104717e+01 </wgt>
<wgt id='1351'> +6.9051250e+01 </wgt>
<wgt id='1352'> +6.8646558e+01 </wgt>
<wgt id='1353'> +6.8687817e+01 </wgt>
<wgt id='1354'> +6.9267578e+01 </wgt>
<wgt id='1355'> +6.9976277e+01 </wgt>
<wgt id='1356'> +6.7812452e+01 </wgt>
<wgt id='1357'> +6.9601472e+01 </wgt>
<wgt id='1358'> +6.7719530e+01 </wgt>
<wgt id='1359'> +6.8931358e+01 </wgt>
<wgt id='1360'> +6.8749020e+01 </wgt>
<wgt id='1361'> +6.9536735e+01 </wgt>
<wgt id='1362'> +6.8261705e+01 </wgt>
<wgt id='1363'> +6.9840829e+01 </wgt>
<wgt id='1364'> +6.8053490e+01 </wgt>
<wgt id='1365'> +6.7686959e+01 </wgt>
<wgt id='1366'> +6.8655400e+01 </wgt>
<wgt id='1367'> +6.7840514e+01 </wgt>
<wgt id='1368'> +6.9415380e+01 </wgt>
<wgt id='1369'> +6.8910831e+01 </wgt>
<wgt id='1370'> +6.7281622e+01 </wgt>
<wgt id='1371'> +6.8782554e+01 </wgt>
<wgt id='1372'> +6.8749935e+01 </wgt>
<wgt id='1373'> +6.7165851e+01 </wgt>
<wgt id='1374'> +6.9569649e+01 </wgt>
<wgt id='1375'> +6.8160332e+01 </wgt>
<wgt id='1376'> +6.9725787e+01 </wgt>
<wgt id='1377'> +6.5979970e+01 </wgt>
<wgt id='1378'> +7.1646198e+01 </wgt>
<wgt id='1379'> +6.9427094e+01 </wgt>
<wgt id='1380'> +6.6729585e+01 </wgt>
<wgt id='1381'> +7.1879149e+01 </wgt>
<wgt id='1382'> +5.1111698e+01 </wgt>
<wgt id='1383'> +7.1248284e+01 </wgt>
<wgt id='1384'> +7.0521957e+01 </wgt>
<wgt id='1385'> +8.3456088e+01 </wgt>
<wgt id='1386'> +8.3588011e+01 </wgt>
<wgt id='1387'> +8.3306175e+01 </wgt>
<wgt id='1388'> +8.2937298e+01 </wgt>
<wgt id='1389'> +8.4346488e+01 </wgt>
<wgt id='1390'> +8.3274591e+01 </wgt>
<wgt id='1391'> +8.3670752e+01 </wgt>
<wgt id='1392'> +8.3560129e+01 </wgt>
<wgt id='1393'> +8.3378683e+01 </wgt>
<wgt id='1394'> +8.3063169e+01 </wgt>
<wgt id='1395'> +8.3944389e+01 </wgt>
<wgt id='1396'> +8.2606495e+01 </wgt>
<wgt id='1397'> +8.3898726e+01 </wgt>
<wgt id='1398'> +8.3634967e+01 </wgt>
<wgt id='1399'> +8.3311792e+01 </wgt>
<wgt id='1400'> +8.3248200e+01 </wgt>
<wgt id='1401'> +8.3606871e+01 </wgt>
<wgt id='1402'> +8.3236750e+01 </wgt>
<wgt id='1403'> +8.3556064e+01 </wgt>
<wgt id='1404'> +8.4410355e+01 </wgt>
<wgt id='1405'> +8.2991661e+01 </wgt>
<wgt id='1406'> +8.3376351e+01 </wgt>
<wgt id='1407'> +8.3599616e+01 </wgt>
<wgt id='1408'> +8.3431669e+01 </wgt>
<wgt id='1409'> +8.3508727e+01 </wgt>
<wgt id='1410'> +8.3432198e+01 </wgt>
<wgt id='1411'> +8.3465832e+01 </wgt>
<wgt id='1412'> +8.4257296e+01 </wgt>
<wgt id='1413'> +8.2432712e+01 </wgt>
<wgt id='1414'> +8.3873053e+01 </wgt>
<wgt id='1415'> +8.3188580e+01 </wgt>
<wgt id='1416'> +8.3551530e+01 </wgt>
<wgt id='1417'> +8.3399756e+01 </wgt>
<wgt id='1418'> +8.3740276e+01 </wgt>
<wgt id='1419'> +8.2847582e+01 </wgt>
<wgt id='1420'> +8.2897841e+01 </wgt>
<wgt id='1421'> +8.3514459e+01 </wgt>
<wgt id='1422'> +8.3683070e+01 </wgt>
<wgt id='1423'> +8.3195657e+01 </wgt>
<wgt id='1424'> +8.3672821e+01 </wgt>
<wgt id='1425'> +8.2898429e+01 </wgt>
<wgt id='1426'> +8.3607124e+01 </wgt>
<wgt id='1427'> +8.3311082e+01 </wgt>
<wgt id='1428'> +8.3810112e+01 </wgt>
<wgt id='1429'> +8.3426669e+01 </wgt>
<wgt id='1430'> +8.3467548e+01 </wgt>
<wgt id='1431'> +8.3445660e+01 </wgt>
<wgt id='1432'> +8.3418424e+01 </wgt>
<wgt id='1433'> +8.3492024e+01 </wgt>
<wgt id='1434'> +8.3388987e+01 </wgt>
<wgt id='1435'> +8.3526866e+01 </wgt>
<wgt id='1436'> +0.0000000e+00 </wgt>
<wgt id='1437'> +0.0000000e+00 </wgt>
<wgt id='1438'> +0.0000000e+00 </wgt>
<wgt id='1439'> +0.0000000e+00 </wgt>
<wgt id='1440'> +0.0000000e+00 </wgt>
<wgt id='1441'> +0.0000000e+00 </wgt>
<wgt id='1442'> +0.0000000e+00 </wgt>
<wgt id='1443'> +0.0000000e+00 </wgt>
<wgt id='1444'> +0.0000000e+00 </wgt>
<wgt id='1445'> +0.0000000e+00 </wgt>
<wgt id='1446'> +0.0000000e+00 </wgt>
<wgt id='1447'> +0.0000000e+00 </wgt>
<wgt id='1448'> +0.0000000e+00 </wgt>
<wgt id='1449'> +0.0000000e+00 </wgt>
<wgt id='1450'> +0.0000000e+00 </wgt>
<wgt id='1451'> +0.0000000e+00 </wgt>
<wgt id='1452'> +0.0000000e+00 </wgt>
<wgt id='1453'> +0.0000000e+00 </wgt>
<wgt id='1454'> +0.0000000e+00 </wgt>
<wgt id='1455'> +0.0000000e+00 </wgt>
<wgt id='1456'> +0.0000000e+00 </wgt>
<wgt id='1457'> +0.0000000e+00 </wgt>
<wgt id='1458'> +0.0000000e+00 </wgt>
<wgt id='1459'> +0.0000000e+00 </wgt>
<wgt id='1460'> +0.0000000e+00 </wgt>
<wgt id='1461'> +0.0000000e+00 </wgt>
<wgt id='1462'> +0.0000000e+00 </wgt>
<wgt id='1463'> +0.0000000e+00 </wgt>
<wgt id='1464'> +0.0000000e+00 </wgt>
<wgt id='1465'> +7.6624387e+01 </wgt>
<wgt id='1466'> +7.1952946e+01 </wgt>
<wgt id='1467'> +7.1680411e+01 </wgt>
<wgt id='1468'> +7.2985360e+01 </wgt>
<wgt id='1469'> +7.2106898e+01 </wgt>
<wgt id='1470'> +7.1610476e+01 </wgt>
<wgt id='1471'> +7.1897806e+01 </wgt>
<wgt id='1472'> +7.2356094e+01 </wgt>
<wgt id='1473'> +7.1687265e+01 </wgt>
<wgt id='1474'> +7.1529915e+01 </wgt>
<wgt id='1475'> +7.2237075e+01 </wgt>
<wgt id='1476'> +7.4469478e+01 </wgt>
<wgt id='1477'> +7.2049011e+01 </wgt>
<wgt id='1478'> +7.0849505e+01 </wgt>
<wgt id='1479'> +7.2100030e+01 </wgt>
<wgt id='1480'> +7.0516556e+01 </wgt>
<wgt id='1481'> +7.2352187e+01 </wgt>
<wgt id='1482'> +7.1635396e+01 </wgt>
<wgt id='1483'> +7.1527007e+01 </wgt>
<wgt id='1484'> +7.1998695e+01 </wgt>
<wgt id='1485'> +7.1619293e+01 </wgt>
<wgt id='1486'> +7.1687590e+01 </wgt>
<wgt id='1487'> +7.2220947e+01 </wgt>
<wgt id='1488'> +7.2264070e+01 </wgt>
<wgt id='1489'> +7.1844067e+01 </wgt>
<wgt id='1490'> +7.2049623e+01 </wgt>
<wgt id='1491'> +7.2436726e+01 </wgt>
<wgt id='1492'> +7.2141821e+01 </wgt>
<wgt id='1493'> +7.1829784e+01 </wgt>
<wgt id='1494'> +7.2108504e+01 </wgt>
<wgt id='1495'> +7.1967533e+01 </wgt>
<wgt id='1496'> +7.2125288e+01 </wgt>
<wgt id='1497'> +7.1963198e+01 </wgt>
<wgt id='1498'> +7.1890767e+01 </wgt>
<wgt id='1499'> +7.2045858e+01 </wgt>
<wgt id='1500'> +7.2218208e+01 </wgt>
<wgt id='1501'> +7.1894478e+01 </wgt>
<wgt id='1502'> +7.1962106e+01 </wgt>
<wgt id='1503'> +7.1979043e+01 </wgt>
<wgt id='1504'> +7.2004806e+01 </wgt>
<wgt id='1505'> +7.2108589e+01 </wgt>
<wgt id='1506'> +7.2140636e+01 </wgt>
<wgt id='1507'> +7.2049886e+01 </wgt>
<wgt id='1508'> +7.2003525e+01 </wgt>
<wgt id='1509'> +7.1899703e+01 </wgt>
<wgt id='1510'> +7.2165118e+01 </wgt>
<wgt id='1511'> +7.1953677e+01 </wgt>
<wgt id='1512'> +7.1908680e+01 </wgt>
<wgt id='1513'> +7.1906100e+01 </wgt>
<wgt id='1514'> +7.2053996e+01 </wgt>
<wgt id='1515'> +7.2009397e+01 </wgt>
<wgt id='1516'> +7.1771643e+01 </wgt>
<wgt id='1517'> +7.1978217e+01 </wgt>
<wgt id='1518'> +7.1805501e+01 </wgt>
<wgt id='1519'> +7.1789984e+01 </wgt>
<wgt id='1520'> +7.1850090e+01 </wgt>
<wgt id='1521'> +7.1984427e+01 </wgt>
<wgt id='1522'> +7.1900676e+01 </wgt>
<wgt id='1523'> +7.2044117e+01 </wgt>
<wgt id='1524'> +7.1990471e+01 </wgt>
<wgt id='1525'> +7.2037304e+01 </wgt>
<wgt id='1526'> +7.1930610e+01 </wgt>
<wgt id='1527'> +7.2103764e+01 </wgt>
<wgt id='1528'> +7.2038567e+01 </wgt>
<wgt id='1529'> +7.1918203e+01 </wgt>
<wgt id='1530'> +7.1957186e+01 </wgt>
<wgt id='1531'> +7.2020215e+01 </wgt>
<wgt id='1532'> +7.2085133e+01 </wgt>
<wgt id='1533'> +7.1981154e+01 </wgt>
<wgt id='1534'> +7.2015741e+01 </wgt>
<wgt id='1535'> +7.1980115e+01 </wgt>
<wgt id='1536'> +7.1854443e+01 </wgt>
<wgt id='1537'> +7.1893109e+01 </wgt>
<wgt id='1538'> +7.1950942e+01 </wgt>
<wgt id='1539'> +7.1987814e+01 </wgt>
<wgt id='1540'> +7.1766609e+01 </wgt>
<wgt id='1541'> +7.1926251e+01 </wgt>
<wgt id='1542'> +7.2002577e+01 </wgt>
<wgt id='1543'> +7.1862839e+01 </wgt>
<wgt id='1544'> +7.1892249e+01 </wgt>
<wgt id='1545'> +7.1969876e+01 </wgt>
<wgt id='1546'> +7.1949255e+01 </wgt>
<wgt id='1547'> +7.2015465e+01 </wgt>
<wgt id='1548'> +7.2016426e+01 </wgt>
<wgt id='1549'> +7.1885666e+01 </wgt>
<wgt id='1550'> +7.2025161e+01 </wgt>
<wgt id='1551'> +7.1943376e+01 </wgt>
<wgt id='1552'> +7.2031689e+01 </wgt>
<wgt id='1553'> +7.2022073e+01 </wgt>
<wgt id='1554'> +7.2024304e+01 </wgt>
<wgt id='1555'> +7.1934556e+01 </wgt>
<wgt id='1556'> +7.1996852e+01 </wgt>
<wgt id='1557'> +7.1881548e+01 </wgt>
<wgt id='1558'> +7.1935344e+01 </wgt>
<wgt id='1559'> +7.2010304e+01 </wgt>
<wgt id='1560'> +7.1883392e+01 </wgt>
<wgt id='1561'> +7.1898247e+01 </wgt>
<wgt id='1562'> +7.2011125e+01 </wgt>
<wgt id='1563'> +7.1962031e+01 </wgt>
<wgt id='1564'> +7.1934658e+01 </wgt>
<wgt id='1565'> +7.1930031e+01 </wgt>
<wgt id='1566'> +7.1957443e+01 </wgt>
<wgt id='1567'> +6.9816667e+01 </wgt>
<wgt id='1568'> +7.3891004e+01 </wgt>
<wgt id='1569'> +7.2067852e+01 </wgt>
<wgt id='1570'> +7.1425486e+01 </wgt>
<wgt id='1571'> +7.3019990e+01 </wgt>
<wgt id='1572'> +7.0536400e+01 </wgt>
<wgt id='1573'> +7.1486804e+01 </wgt>
<wgt id='1574'> +7.2187363e+01 </wgt>
<wgt id='1575'> +7.1854465e+01 </wgt>
<wgt id='1576'> +7.2746307e+01 </wgt>
<wgt id='1577'> +7.2296669e+01 </wgt>
<wgt id='1578'> +7.1725096e+01 </wgt>
<wgt id='1579'> +7.1148667e+01 </wgt>
<wgt id='1580'> +7.3882585e+01 </wgt>
<wgt id='1581'> +7.1418009e+01 </wgt>
<wgt id='1582'> +7.0272026e+01 </wgt>
<wgt id='1583'> +7.1662934e+01 </wgt>
<wgt id='1584'> +7.2166018e+01 </wgt>
<wgt id='1585'> +7.3400478e+01 </wgt>
<wgt id='1586'> +7.1640432e+01 </wgt>
<wgt id='1587'> +7.1860663e+01 </wgt>
<wgt id='1588'> +7.2293210e+01 </wgt>
<wgt id='1589'> +7.2496449e+01 </wgt>
<wgt id='1590'> +7.2092442e+01 </wgt>
<wgt id='1591'> +7.1909264e+01 </wgt>
<wgt id='1592'> +7.2114337e+01 </wgt>
<wgt id='1593'> +7.1867991e+01 </wgt>
<wgt id='1594'> +7.2006989e+01 </wgt>
<wgt id='1595'> +7.1877579e+01 </wgt>
<wgt id='1596'> +7.2216437e+01 </wgt>
<wgt id='1597'> +7.2167305e+01 </wgt>
<wgt id='1598'> +7.1933248e+01 </wgt>
<wgt id='1599'> +7.1821001e+01 </wgt>
<wgt id='1600'> +7.2199878e+01 </wgt>
<wgt id='1601'> +7.1908869e+01 </wgt>
<wgt id='1602'> +7.1876672e+01 </wgt>
<wgt id='1603'> +7.2141433e+01 </wgt>
<wgt id='1604'> +7.2021486e+01 </wgt>
<wgt id='1605'> +7.2141019e+01 </wgt>
<wgt id='1606'> +7.1973167e+01 </wgt>
<wgt id='1607'> +7.2019576e+01 </wgt>
<wgt id='1608'> +7.1929071e+01 </wgt>
<wgt id='1609'> +7.2011802e+01 </wgt>
<wgt id='1610'> +7.2222771e+01 </wgt>
<wgt id='1611'> +7.2236115e+01 </wgt>
<wgt id='1612'> +7.1993874e+01 </wgt>
<wgt id='1613'> +7.2009014e+01 </wgt>
<wgt id='1614'> +7.2218256e+01 </wgt>
<wgt id='1615'> +7.2049648e+01 </wgt>
<wgt id='1616'> +7.2204990e+01 </wgt>
<wgt id='1617'> +7.2168295e+01 </wgt>
<wgt id='1618'> +7.2145049e+01 </wgt>
<wgt id='1619'> +7.2059965e+01 </wgt>
<wgt id='1620'> +7.2009026e+01 </wgt>
<wgt id='1621'> +7.2126468e+01 </wgt>
<wgt id='1622'> +7.1914307e+01 </wgt>
<wgt id='1623'> +7.2029592e+01 </wgt>
<wgt id='1624'> +7.2087370e+01 </wgt>
<wgt id='1625'> +7.2034164e+01 </wgt>
<wgt id='1626'> +7.2168699e+01 </wgt>
<wgt id='1627'> +7.1950778e+01 </wgt>
<wgt id='1628'> +7.2044857e+01 </wgt>
<wgt id='1629'> +7.2060787e+01 </wgt>
<wgt id='1630'> +7.2075912e+01 </wgt>
<wgt id='1631'> +7.2079972e+01 </wgt>
<wgt id='1632'> +7.1954835e+01 </wgt>
<wgt id='1633'> +7.2205324e+01 </wgt>
<wgt id='1634'> +7.1990716e+01 </wgt>
<wgt id='1635'> +7.1996375e+01 </wgt>
<wgt id='1636'> +7.2049788e+01 </wgt>
<wgt id='1637'> +7.2073764e+01 </wgt>
<wgt id='1638'> +7.2056818e+01 </wgt>
<wgt id='1639'> +7.2054579e+01 </wgt>
<wgt id='1640'> +7.2052625e+01 </wgt>
<wgt id='1641'> +7.2016518e+01 </wgt>
<wgt id='1642'> +7.2098783e+01 </wgt>
<wgt id='1643'> +7.2072975e+01 </wgt>
<wgt id='1644'> +7.2112525e+01 </wgt>
<wgt id='1645'> +7.2053504e+01 </wgt>
<wgt id='1646'> +7.2057980e+01 </wgt>
<wgt id='1647'> +7.1980195e+01 </wgt>
<wgt id='1648'> +7.2058705e+01 </wgt>
<wgt id='1649'> +7.2149148e+01 </wgt>
<wgt id='1650'> +7.2104622e+01 </wgt>
<wgt id='1651'> +7.2086842e+01 </wgt>
<wgt id='1652'> +7.2096516e+01 </wgt>
<wgt id='1653'> +7.2042646e+01 </wgt>
<wgt id='1654'> +7.2003679e+01 </wgt>
<wgt id='1655'> +7.2121530e+01 </wgt>
<wgt id='1656'> +7.1975644e+01 </wgt>
<wgt id='1657'> +7.2018695e+01 </wgt>
<wgt id='1658'> +7.2017989e+01 </wgt>
<wgt id='1659'> +7.2028413e+01 </wgt>
<wgt id='1660'> +7.1997136e+01 </wgt>
<wgt id='1661'> +7.2011222e+01 </wgt>
<wgt id='1662'> +7.2064855e+01 </wgt>
<wgt id='1663'> +7.1995504e+01 </wgt>
<wgt id='1664'> +7.2039551e+01 </wgt>
<wgt id='1665'> +7.2114781e+01 </wgt>
<wgt id='1666'> +7.2080683e+01 </wgt>
<wgt id='1667'> +7.2013791e+01 </wgt>
<wgt id='1668'> +7.2095279e+01 </wgt>
<wgt id='1669'> +7.2090517e+01 </wgt>
<wgt id='1670'> +7.0204564e+01 </wgt>
<wgt id='1671'> +7.3541781e+01 </wgt>
<wgt id='1672'> +7.1961223e+01 </wgt>
<wgt id='1673'> +7.2659636e+01 </wgt>
<wgt id='1674'> +7.0973582e+01 </wgt>
<wgt id='1675'> +7.1926564e+01 </wgt>
<wgt id='1676'> +7.0186264e+01 </wgt>
<wgt id='1677'> +7.4158696e+01 </wgt>
<wgt id='1678'> +7.1627090e+01 </wgt>
<wgt id='1679'> +7.1968988e+01 </wgt>
<wgt id='1680'> +7.2254399e+01 </wgt>
<wgt id='1681'> +7.1682554e+01 </wgt>
<wgt id='1682'> +7.2400902e+01 </wgt>
<wgt id='1683'> +7.1932242e+01 </wgt>
<wgt id='1684'> +7.2315415e+01 </wgt>
<wgt id='1685'> +7.2094360e+01 </wgt>
<wgt id='1686'> +7.1638870e+01 </wgt>
<wgt id='1687'> +7.1817139e+01 </wgt>
<wgt id='1688'> +7.1398123e+01 </wgt>
<wgt id='1689'> +7.1992671e+01 </wgt>
<wgt id='1690'> +7.2218723e+01 </wgt>
<wgt id='1691'> +7.2270940e+01 </wgt>
<wgt id='1692'> +7.2185398e+01 </wgt>
<wgt id='1693'> +7.1883412e+01 </wgt>
<wgt id='1694'> +7.1901894e+01 </wgt>
<wgt id='1695'> +7.1940235e+01 </wgt>
<wgt id='1696'> +7.1642791e+01 </wgt>
<wgt id='1697'> +7.2104267e+01 </wgt>
<wgt id='1698'> +7.2239564e+01 </wgt>
<wgt id='1699'> +7.2219577e+01 </wgt>
<wgt id='1700'> +7.2371618e+01 </wgt>
<wgt id='1701'> +7.2249966e+01 </wgt>
<wgt id='1702'> +7.1941382e+01 </wgt>
<wgt id='1703'> +6.9816667e+01 </wgt>
<wgt id='1704'> +7.3891004e+01 </wgt>
<wgt id='1705'> +7.2064967e+01 </wgt>
<wgt id='1706'> +7.1224537e+01 </wgt>
<wgt id='1707'> +7.2790677e+01 </wgt>
<wgt id='1708'> +7.1743495e+01 </wgt>
<wgt id='1709'> +7.3798090e+01 </wgt>
<wgt id='1710'> +7.0442578e+01 </wgt>
<wgt id='1711'> +7.1925735e+01 </wgt>
<wgt id='1712'> +7.1667607e+01 </wgt>
<wgt id='1713'> +7.1303141e+01 </wgt>
<wgt id='1714'> +7.1321983e+01 </wgt>
<wgt id='1715'> +7.2589593e+01 </wgt>
<wgt id='1716'> +7.2257968e+01 </wgt>
<wgt id='1717'> +7.2453873e+01 </wgt>
<wgt id='1718'> +7.2432442e+01 </wgt>
<wgt id='1719'> +7.1957457e+01 </wgt>
<wgt id='1720'> +7.1911821e+01 </wgt>
<wgt id='1721'> +7.1687331e+01 </wgt>
<wgt id='1722'> +7.2745331e+01 </wgt>
<wgt id='1723'> +7.1896634e+01 </wgt>
<wgt id='1724'> +7.1580812e+01 </wgt>
<wgt id='1725'> +7.2803521e+01 </wgt>
<wgt id='1726'> +7.2487285e+01 </wgt>
<wgt id='1727'> +7.4012524e+01 </wgt>
<wgt id='1728'> +7.2097416e+01 </wgt>
<wgt id='1729'> +7.2784674e+01 </wgt>
<wgt id='1730'> +7.1878937e+01 </wgt>
<wgt id='1731'> +7.2295623e+01 </wgt>
<wgt id='1732'> +7.2202556e+01 </wgt>
<wgt id='1733'> +7.2665930e+01 </wgt>
<wgt id='1734'> +7.2192013e+01 </wgt>
<wgt id='1735'> +7.2065565e+01 </wgt>
<wgt id='1736'> +7.0204564e+01 </wgt>
<wgt id='1737'> +7.3541781e+01 </wgt>
<wgt id='1738'> +7.6969981e+01 </wgt>
<wgt id='1739'> +7.6835068e+01 </wgt>
<wgt id='1740'> +7.7104433e+01 </wgt>
<wgt id='1741'> +7.7184087e+01 </wgt>
<wgt id='1742'> +7.6756245e+01 </wgt>
<wgt id='1743'> +7.7121007e+01 </wgt>
<wgt id='1744'> +7.6819275e+01 </wgt>
<wgt id='1745'> +7.7284662e+01 </wgt>
<wgt id='1746'> +7.6663769e+01 </wgt>
<wgt id='1747'> +7.7071271e+01 </wgt>
<wgt id='1748'> +7.6871775e+01 </wgt>
<wgt id='1749'> +7.6746413e+01 </wgt>
<wgt id='1750'> +7.7215297e+01 </wgt>
<wgt id='1751'> +7.6605923e+01 </wgt>
<wgt id='1752'> +7.7338738e+01 </wgt>
<wgt id='1753'> +7.6944461e+01 </wgt>
<wgt id='1754'> +7.6867323e+01 </wgt>
<wgt id='1755'> +7.7279914e+01 </wgt>
<wgt id='1756'> +7.6662239e+01 </wgt>
<wgt id='1757'> +7.6637170e+01 </wgt>
<wgt id='1758'> +7.7279627e+01 </wgt>
<wgt id='1759'> +7.7343752e+01 </wgt>
<wgt id='1760'> +7.6506520e+01 </wgt>
<wgt id='1761'> +7.6593215e+01 </wgt>
<wgt id='1762'> +7.6922041e+01 </wgt>
<wgt id='1763'> +7.7227020e+01 </wgt>
<wgt id='1764'> +7.6829331e+01 </wgt>
<wgt id='1765'> +7.6959814e+01 </wgt>
<wgt id='1766'> +7.7062091e+01 </wgt>
<wgt id='1767'> +7.6969981e+01 </wgt>
<wgt id='1768'> +7.6980125e+01 </wgt>
<wgt id='1769'> +7.6907340e+01 </wgt>
<wgt id='1770'> +7.6970096e+01 </wgt>
<wgt id='1771'> +7.6927904e+01 </wgt>
<wgt id='1772'> +7.7305063e+01 </wgt>
<wgt id='1773'> +7.6218748e+01 </wgt>
<wgt id='1774'> +7.9186304e+01 </wgt>
<wgt id='1775'> +7.4858045e+01 </wgt>
<wgt id='1776'> +7.6826044e+01 </wgt>
<wgt id='1777'> +7.7137579e+01 </wgt>
<wgt id='1778'> +7.6990733e+01 </wgt>
<wgt id='1779'> +7.7031594e+01 </wgt>
<wgt id='1780'> +7.5992265e+01 </wgt>
<wgt id='1781'> +7.2566642e+01 </wgt>
<wgt id='1782'> +7.2487768e+01 </wgt>
<wgt id='1783'> +7.2633430e+01 </wgt>
<wgt id='1784'> +7.2673817e+01 </wgt>
<wgt id='1785'> +7.2447775e+01 </wgt>
<wgt id='1786'> +7.2760924e+01 </wgt>
<wgt id='1787'> +7.2360952e+01 </wgt>
<wgt id='1788'> +7.2982523e+01 </wgt>
<wgt id='1789'> +7.2149755e+01 </wgt>
<wgt id='1790'> +7.2524634e+01 </wgt>
<wgt id='1791'> +7.2601941e+01 </wgt>
<wgt id='1792'> +7.2782536e+01 </wgt>
<wgt id='1793'> +7.2339850e+01 </wgt>
<wgt id='1794'> +7.2325955e+01 </wgt>
<wgt id='1795'> +7.2793953e+01 </wgt>
<wgt id='1796'> +7.2407960e+01 </wgt>
<wgt id='1797'> +7.2628105e+01 </wgt>
<wgt id='1798'> +7.2541833e+01 </wgt>
<wgt id='1799'> +7.2564145e+01 </wgt>
<wgt id='1800'> +7.2389619e+01 </wgt>
<wgt id='1801'> +7.2727655e+01 </wgt>
<wgt id='1802'> +7.1840198e+01 </wgt>
<wgt id='1803'> +7.3170534e+01 </wgt>
<wgt id='1804'> +7.2594908e+01 </wgt>
<wgt id='1805'> +7.2512201e+01 </wgt>
<wgt id='1806'> +7.2262959e+01 </wgt>
<wgt id='1807'> +7.2651234e+01 </wgt>
<wgt id='1808'> +7.2540398e+01 </wgt>
<wgt id='1809'> +7.2674186e+01 </wgt>
<wgt id='1810'> +7.2517264e+01 </wgt>
<wgt id='1811'> +7.2612563e+01 </wgt>
<wgt id='1812'> +7.2244651e+01 </wgt>
<wgt id='1813'> +7.2589621e+01 </wgt>
<wgt id='1814'> +7.2414292e+01 </wgt>
<wgt id='1815'> +7.2390702e+01 </wgt>
<wgt id='1816'> +7.2348119e+01 </wgt>
<wgt id='1817'> +7.4570590e+01 </wgt>
<wgt id='1818'> +7.0743391e+01 </wgt>
<wgt id='1819'> +7.2258361e+01 </wgt>
<wgt id='1820'> +7.2632588e+01 </wgt>
<wgt id='1821'> +7.2213099e+01 </wgt>
<wgt id='1822'> +7.3260398e+01 </wgt>
<wgt id='1823'> +7.1960449e+01 </wgt>
<wgt id='1824'> +6.8544593e+01 </wgt>
<wgt id='1825'> +6.8535492e+01 </wgt>
<wgt id='1826'> +6.8526291e+01 </wgt>
<wgt id='1827'> +6.8517245e+01 </wgt>
<wgt id='1828'> +6.8508137e+01 </wgt>
<wgt id='1829'> +6.8499193e+01 </wgt>
<wgt id='1830'> +6.8490064e+01 </wgt>
<wgt id='1831'> +6.8480788e+01 </wgt>
<wgt id='1832'> +6.8471858e+01 </wgt>
<wgt id='1833'> +6.8462717e+01 </wgt>
<wgt id='1834'> +6.8453658e+01 </wgt>
<wgt id='1835'> +6.8444498e+01 </wgt>
<wgt id='1836'> +6.8435430e+01 </wgt>
<wgt id='1837'> +6.8426326e+01 </wgt>
<wgt id='1838'> +6.8417223e+01 </wgt>
<wgt id='1839'> +6.8408151e+01 </wgt>
<wgt id='1840'> +6.8398978e+01 </wgt>
<wgt id='1841'> +6.8389972e+01 </wgt>
<wgt id='1842'> +6.8380952e+01 </wgt>
<wgt id='1843'> +6.8371726e+01 </wgt>
<wgt id='1844'> +6.8362637e+01 </wgt>
<wgt id='1845'> +6.8353589e+01 </wgt>
<wgt id='1846'> +6.8344568e+01 </wgt>
<wgt id='1847'> +6.8335349e+01 </wgt>
<wgt id='1848'> +6.8326260e+01 </wgt>
<wgt id='1849'> +6.8317287e+01 </wgt>
<wgt id='1850'> +6.8308172e+01 </wgt>
<wgt id='1851'> +6.8299048e+01 </wgt>
<wgt id='1852'> +6.8290008e+01 </wgt>
<wgt id='1853'> +6.8280907e+01 </wgt>
<wgt id='1854'> +6.8271865e+01 </wgt>
<wgt id='1855'> +7.1317338e+01 </wgt>
<wgt id='1856'> +7.0657583e+01 </wgt>
<wgt id='1857'> +7.2258777e+01 </wgt>
<wgt id='1858'> +6.9796697e+01 </wgt>
<wgt id='1859'> +7.0735166e+01 </wgt>
<wgt id='1860'> +7.1432644e+01 </wgt>
<wgt id='1861'> +7.1121200e+01 </wgt>
<wgt id='1862'> +7.2009426e+01 </wgt>
<wgt id='1863'> +7.1545920e+01 </wgt>
<wgt id='1864'> +7.0977379e+01 </wgt>
<wgt id='1865'> +7.0398718e+01 </wgt>
<wgt id='1866'> +7.3139904e+01 </wgt>
<wgt id='1867'> +7.0683662e+01 </wgt>
<wgt id='1868'> +6.9542996e+01 </wgt>
<wgt id='1869'> +7.0917467e+01 </wgt>
<wgt id='1870'> +7.1388735e+01 </wgt>
<wgt id='1871'> +7.2661698e+01 </wgt>
<wgt id='1872'> +7.0882920e+01 </wgt>
<wgt id='1873'> +7.1107438e+01 </wgt>
<wgt id='1874'> +7.1556211e+01 </wgt>
<wgt id='1875'> +7.1756980e+01 </wgt>
<wgt id='1876'> +7.1332076e+01 </wgt>
<wgt id='1877'> +7.1156425e+01 </wgt>
<wgt id='1878'> +7.1367563e+01 </wgt>
<wgt id='1879'> +7.1109253e+01 </wgt>
<wgt id='1880'> +7.1243989e+01 </wgt>
<wgt id='1881'> +7.1113606e+01 </wgt>
<wgt id='1882'> +7.1480490e+01 </wgt>
<wgt id='1883'> +7.1422689e+01 </wgt>
<wgt id='1884'> +7.1175514e+01 </wgt>
<wgt id='1885'> +7.1063522e+01 </wgt>
<wgt id='1886'> +7.1464238e+01 </wgt>
<wgt id='1887'> +7.1152858e+01 </wgt>
<wgt id='1888'> +7.1121351e+01 </wgt>
<wgt id='1889'> +7.1390448e+01 </wgt>
<wgt id='1890'> +7.1266913e+01 </wgt>
<wgt id='1891'> +7.1391382e+01 </wgt>
<wgt id='1892'> +7.1222803e+01 </wgt>
<wgt id='1893'> +7.1267445e+01 </wgt>
<wgt id='1894'> +7.1172634e+01 </wgt>
<wgt id='1895'> +7.1261915e+01 </wgt>
<wgt id='1896'> +7.1469023e+01 </wgt>
<wgt id='1897'> +7.1483881e+01 </wgt>
<wgt id='1898'> +7.1251666e+01 </wgt>
<wgt id='1899'> +7.1257137e+01 </wgt>
<wgt id='1900'> +7.1466101e+01 </wgt>
<wgt id='1901'> +7.1303688e+01 </wgt>
<wgt id='1902'> +7.1451986e+01 </wgt>
<wgt id='1903'> +7.1420185e+01 </wgt>
<wgt id='1904'> +7.1393208e+01 </wgt>
<wgt id='1905'> +7.1310768e+01 </wgt>
<wgt id='1906'> +7.1256953e+01 </wgt>
<wgt id='1907'> +7.1374997e+01 </wgt>
<wgt id='1908'> +7.1164272e+01 </wgt>
<wgt id='1909'> +7.1281274e+01 </wgt>
<wgt id='1910'> +7.1338660e+01 </wgt>
<wgt id='1911'> +7.1278379e+01 </wgt>
<wgt id='1912'> +7.1418582e+01 </wgt>
<wgt id='1913'> +7.1205675e+01 </wgt>
<wgt id='1914'> +7.1296877e+01 </wgt>
<wgt id='1915'> +7.1312767e+01 </wgt>
<wgt id='1916'> +7.1326210e+01 </wgt>
<wgt id='1917'> +7.1328061e+01 </wgt>
<wgt id='1918'> +7.1201835e+01 </wgt>
<wgt id='1919'> +7.1456819e+01 </wgt>
<wgt id='1920'> +7.1239361e+01 </wgt>
<wgt id='1921'> +7.1245445e+01 </wgt>
<wgt id='1922'> +7.1297139e+01 </wgt>
<wgt id='1923'> +7.1323264e+01 </wgt>
<wgt id='1924'> +7.1303676e+01 </wgt>
<wgt id='1925'> +7.1302944e+01 </wgt>
<wgt id='1926'> +7.1303008e+01 </wgt>
<wgt id='1927'> +7.1264155e+01 </wgt>
<wgt id='1928'> +7.1347006e+01 </wgt>
<wgt id='1929'> +7.1322296e+01 </wgt>
<wgt id='1930'> +7.1362510e+01 </wgt>
<wgt id='1931'> +7.1306367e+01 </wgt>
<wgt id='1932'> +7.1307592e+01 </wgt>
<wgt id='1933'> +7.1232006e+01 </wgt>
<wgt id='1934'> +7.1308019e+01 </wgt>
<wgt id='1935'> +7.1395332e+01 </wgt>
<wgt id='1936'> +7.1357223e+01 </wgt>
<wgt id='1937'> +7.1336895e+01 </wgt>
<wgt id='1938'> +7.1346278e+01 </wgt>
<wgt id='1939'> +7.1290909e+01 </wgt>
<wgt id='1940'> +7.1253964e+01 </wgt>
<wgt id='1941'> +7.1374414e+01 </wgt>
<wgt id='1942'> +7.1224106e+01 </wgt>
<wgt id='1943'> +7.1266661e+01 </wgt>
<wgt id='1944'> +7.1265938e+01 </wgt>
<wgt id='1945'> +7.1276879e+01 </wgt>
<wgt id='1946'> +7.1244512e+01 </wgt>
<wgt id='1947'> +7.1259003e+01 </wgt>
<wgt id='1948'> +7.1314879e+01 </wgt>
<wgt id='1949'> +7.1242534e+01 </wgt>
<wgt id='1950'> +7.1288991e+01 </wgt>
<wgt id='1951'> +7.1365244e+01 </wgt>
<wgt id='1952'> +7.1330449e+01 </wgt>
<wgt id='1953'> +7.1262661e+01 </wgt>
<wgt id='1954'> +7.1345771e+01 </wgt>
<wgt id='1955'> +7.1340723e+01 </wgt>
<wgt id='1956'> +7.1316620e+01 </wgt>
<wgt id='1957'> +7.1321259e+01 </wgt>
<wgt id='1958'> +7.1318090e+01 </wgt>
<wgt id='1959'> +7.1318219e+01 </wgt>
<wgt id='1960'> +7.1319543e+01 </wgt>
<wgt id='1961'> +7.1317658e+01 </wgt>
<wgt id='1962'> +7.1322070e+01 </wgt>
</rwgt>
</event>
<event npLO=" -1 " npNLO=" 0 ">
 7      0 +1.5146096e+02 3.90113670e+01 7.54677110e-03 1.16553590e-01
       -1 -1    0    0    0  502 +0.0000000000e+00 +0.0000000000e+00 +1.9386647000e+02 1.9386647000e+02 0.0000000000e+00 0.0000e+00 9.0000e+00
        1 -1    0    0  501    0 +0.0000000000e+00 +0.0000000000e+00 -2.1725565000e+01 2.1725565000e+01 0.0000000000e+00 0.0000e+00 9.0000e+00
       23  2    1    2    0    0 +1.6269486000e+01 +2.5973283000e+01 +1.2731460000e+02 1.6129005000e+02 9.4160322000e+01 0.0000e+00 0.0000e+00
       13  1    3    3    0    0 +3.2375420000e+01 +2.5535108000e+01 +3.0930069000e+01 5.1544920000e+01 0.0000000000e+00 0.0000e+00 9.0000e+00
      -13  1    3    3    0    0 -1.9768342000e+01 -1.7979971000e+01 +2.7491496000e+01 3.8338611000e+01 0.0000000000e+00 0.0000e+00 9.0000e+00
       22  1    3    3    0    0 +3.6624080000e+00 +1.8418146000e+01 +6.8893033000e+01 7.1406522000e+01 0.0000000000e+00 0.0000e+00 9.0000e+00
       21  1    1    2  501  502 -1.6269486000e+01 -2.5973283000e+01 +4.4826306000e+01 5.4301983000e+01 0.0000000000e+00 0.0000e+00 9.0000e+00
#aMCatNLO 2  0  0  1  2 0.64875636E+01 0.00000000E+00 -9  6  0 0.00000000E+00 0.00000000E+00 0.00000000E+00 0.00000000E+00 0.00000000E+00
<rwgt>
<wgt id='1001'> +1.5146000e+02 </wgt>
<wgt id='1002'> +1.5146000e+02 </wgt>
<wgt id='1003'> +1.3686000e+02 </wgt>
<wgt id='1004'> +1.5285000e+02 </wgt>
<wgt id='1005'> +1.5695000e+02 </wgt>
<wgt id='1006'> +1.5477000e+02 </wgt>
<wgt id='1007'> +1.4283000e+02 </wgt>
<wgt id='1008'> +1.4066000e+02 </wgt>
<wgt id='1009'> +1.5178000e+02 </wgt>
<wgt id='1010'> +1.5247000e+02 </wgt>
<wgt id='1011'> +1.5487000e+02 </wgt>
<wgt id='1012'> +1.4773000e+02 </wgt>
<wgt id='1013'> +1.4222000e+02 </wgt>
<wgt id='1014'> +1.5302000e+02 </wgt>
<wgt id='1015'> +1.5462000e+02 </wgt>
<wgt id='1016'> +1.5207000e+02 </wgt>
<wgt id='1017'> +1.5056000e+02 </wgt>
<wgt id='1018'> +1.5602000e+02 </wgt>
<wgt id='1019'> +1.4640000e+02 </wgt>
<wgt id='1020'> +1.4610000e+02 </wgt>
<wgt id='1021'> +1.5184000e+02 </wgt>
<wgt id='1022'> +1.6337000e+02 </wgt>
<wgt id='1023'> +1.5631000e+02 </wgt>
<wgt id='1024'> +1.5093000e+02 </wgt>
<wgt id='1025'> +1.5808000e+02 </wgt>
<wgt id='1026'> +1.6041000e+02 </wgt>
<wgt id='1027'> +1.5644000e+02 </wgt>
<wgt id='1028'> +1.5057000e+02 </wgt>
<wgt id='1029'> +1.5230000e+02 </wgt>
<wgt id='1030'> +1.5208000e+02 </wgt>
<wgt id='1031'> +1.5055000e+02 </wgt>
<wgt id='1032'> +1.5603000e+02 </wgt>
<wgt id='1033'> +1.6154000e+02 </wgt>
<wgt id='1034'> +1.4659000e+02 </wgt>
<wgt id='1035'> +1.5405000e+02 </wgt>
<wgt id='1036'> +1.5211000e+02 </wgt>
<wgt id='1037'> +1.6018000e+02 </wgt>
<wgt id='1038'> +1.5276000e+02 </wgt>
<wgt id='1039'> +1.5300000e+02 </wgt>
<wgt id='1040'> +1.4614000e+02 </wgt>
<wgt id='1041'> +1.4463000e+02 </wgt>
<wgt id='1042'> +1.5523000e+02 </wgt>
<wgt id='1043'> +1.4824000e+02 </wgt>
<wgt id='1044'> +1.5110000e+02 </wgt>
<wgt id='1045'> +1.5288000e+02 </wgt>
<wgt id='1046'> +1.5047000e+02 </wgt>
<wgt id='1047'> +1.5189000e+02 </wgt>
<wgt id='1048'> +1.4613000e+02 </wgt>
<wgt id='1049'> +1.4703000e+02 </wgt>
<wgt id='1050'> +1.4937000e+02 </wgt>
<wgt id='1051'> +1.5448000e+02 </wgt>
<wgt id='1052'> +1.5429000e+02 </wgt>
<wgt id='1053'> +1.5114000e+02 </wgt>
<wgt id='1054'> +1.5088000e+02 </wgt>
<wgt id='1055'> +1.5026000e+02 </wgt>
<wgt id='1056'> +1.5162000e+02 </wgt>
<wgt id='1057'> +1.5438000e+02 </wgt>
<wgt id='1058'> +1.4491000e+02 </wgt>
<wgt id='1059'> +1.5199000e+02 </wgt>
<wgt id='1060'> +1.5018000e+02 </wgt>
<wgt id='1061'> +1.5821000e+02 </wgt>
<wgt id='1062'> +1.5512000e+02 </wgt>
<wgt id='1063'> +1.5149000e+02 </wgt>
<wgt id='1064'> +1.5396000e+02 </wgt>
<wgt id='1065'> +1.4921000e+02 </wgt>
<wgt id='1066'> +1.4502000e+02 </wgt>
<wgt id='1067'> +1.5540000e+02 </wgt>
<wgt id='1068'> +1.5604000e+02 </wgt>
<wgt id='1069'> +1.4706000e+02 </wgt>
<wgt id='1070'> +1.5156000e+02 </wgt>
<wgt id='1071'> +1.5193000e+02 </wgt>
<wgt id='1072'> +1.5557000e+02 </wgt>
<wgt id='1073'> +1.4906000e+02 </wgt>
<wgt id='1074'> +1.4736000e+02 </wgt>
<wgt id='1075'> +1.3565000e+02 </wgt>
<wgt id='1076'> +1.5271000e+02 </wgt>
<wgt id='1077'> +1.5101000e+02 </wgt>
<wgt id='1078'> +1.5124000e+02 </wgt>
<wgt id='1079'> +1.4996000e+02 </wgt>
<wgt id='1080'> +1.5224000e+02 </wgt>
<wgt id='1081'> +1.4788000e+02 </wgt>
<wgt id='1082'> +1.5913000e+02 </wgt>
<wgt id='1083'> +1.5489000e+02 </wgt>
<wgt id='1084'> +1.5544000e+02 </wgt>
<wgt id='1085'> +1.4585000e+02 </wgt>
<wgt id='1086'> +1.5349000e+02 </wgt>
<wgt id='1087'> +1.5221000e+02 </wgt>
<wgt id='1088'> +1.4997000e+02 </wgt>
<wgt id='1089'> +1.5163000e+02 </wgt>
<wgt id='1090'> +1.4847000e+02 </wgt>
<wgt id='1091'> +1.5004000e+02 </wgt>
<wgt id='1092'> +1.5619000e+02 </wgt>
<wgt id='1093'> +1.5243000e+02 </wgt>
<wgt id='1094'> +1.5570000e+02 </wgt>
<wgt id='1095'> +1.5181000e+02 </wgt>
<wgt id='1096'> +1.4727000e+02 </wgt>
<wgt id='1097'> +1.4368000e+02 </wgt>
<wgt id='1098'> +1.4856000e+02 </wgt>
<wgt id='1099'> +1.5896000e+02 </wgt>
<wgt id='1100'> +1.5491000e+02 </wgt>
<wgt id='1101'> +1.5427000e+02 </wgt>
<wgt id='1102'> +1.4554000e+02 </wgt>
<wgt id='1103'> +1.5011000e+02 </wgt>
<wgt id='1104'> +1.5293000e+02 </wgt>
<wgt id='1105'> +1.5146096e+02 </wgt>
<wgt id='1106'> +6.8659001e+01 </wgt>
<wgt id='1107'> +8.4465896e+01 </wgt>
<wgt id='1108'> +8.2105095e+01 </wgt>
<wgt id='1109'> +7.4438375e+01 </wgt>
<wgt id='1110'> +9.1575816e+01 </wgt>
<wgt id='1111'> +6.8478463e+01 </wgt>
<wgt id='1112'> +6.2084155e+01 </wgt>
<wgt id='1113'> +7.6377368e+01 </wgt>
<wgt id='1114'> +8.1736624e+01 </wgt>
<wgt id='1115'> +9.2336152e+01 </wgt>
<wgt id='1116'> +8.1416235e+01 </wgt>
<wgt id='1117'> +8.0970785e+01 </wgt>
<wgt id='1118'> +8.3456376e+01 </wgt>
<wgt id='1119'> +8.0886157e+01 </wgt>
<wgt id='1120'> +8.4068511e+01 </wgt>
<wgt id='1121'> +8.2388260e+01 </wgt>
<wgt id='1122'> +7.6683958e+01 </wgt>
<wgt id='1123'> +7.8249237e+01 </wgt>
<wgt id='1124'> +8.2783203e+01 </wgt>
<wgt id='1125'> +8.1267748e+01 </wgt>
<wgt id='1126'> +7.9397021e+01 </wgt>
<wgt id='1127'> +8.0729389e+01 </wgt>
<wgt id='1128'> +8.0183885e+01 </wgt>
<wgt id='1129'> +8.1135772e+01 </wgt>
<wgt id='1130'> +8.1095451e+01 </wgt>
<wgt id='1131'> +8.5551993e+01 </wgt>
<wgt id='1132'> +8.2105926e+01 </wgt>
<wgt id='1133'> +8.2521272e+01 </wgt>
<wgt id='1134'> +7.7439800e+01 </wgt>
<wgt id='1135'> +7.9899156e+01 </wgt>
<wgt id='1136'> +8.4215163e+01 </wgt>
<wgt id='1137'> +8.3797418e+01 </wgt>
<wgt id='1138'> +8.0279255e+01 </wgt>
<wgt id='1139'> +7.8533537e+01 </wgt>
<wgt id='1140'> +7.9773192e+01 </wgt>
<wgt id='1141'> +9.2236878e+01 </wgt>
<wgt id='1142'> +8.1010503e+01 </wgt>
<wgt id='1143'> +8.1105311e+01 </wgt>
<wgt id='1144'> +8.3597693e+01 </wgt>
<wgt id='1145'> +8.3563930e+01 </wgt>
<wgt id='1146'> +8.0709551e+01 </wgt>
<wgt id='1147'> +8.8070705e+01 </wgt>
<wgt id='1148'> +7.7405164e+01 </wgt>
<wgt id='1149'> +8.4001160e+01 </wgt>
<wgt id='1150'> +8.0820899e+01 </wgt>
<wgt id='1151'> +8.2916776e+01 </wgt>
<wgt id='1152'> +8.0559123e+01 </wgt>
<wgt id='1153'> +7.9183404e+01 </wgt>
<wgt id='1154'> +8.0880770e+01 </wgt>
<wgt id='1155'> +8.3373399e+01 </wgt>
<wgt id='1156'> +8.1964392e+01 </wgt>
<wgt id='1157'> +8.7004267e+01 </wgt>
<wgt id='1158'> +8.4584993e+01 </wgt>
<wgt id='1159'> +8.0969098e+01 </wgt>
<wgt id='1160'> +8.3405873e+01 </wgt>
<wgt id='1161'> +8.2542405e+01 </wgt>
<wgt id='1162'> +7.7186994e+01 </wgt>
<wgt id='1163'> +8.2731409e+01 </wgt>
<wgt id='1164'> +8.5654262e+01 </wgt>
<wgt id='1165'> +7.9348662e+01 </wgt>
<wgt id='1166'> +8.0228566e+01 </wgt>
<wgt id='1167'> +8.1766058e+01 </wgt>
<wgt id='1168'> +8.5620574e+01 </wgt>
<wgt id='1169'> +8.3437786e+01 </wgt>
<wgt id='1170'> +8.3115247e+01 </wgt>
<wgt id='1171'> +8.5270545e+01 </wgt>
<wgt id='1172'> +8.0923510e+01 </wgt>
<wgt id='1173'> +7.9607700e+01 </wgt>
<wgt id='1174'> +8.3220805e+01 </wgt>
<wgt id='1175'> +8.4900117e+01 </wgt>
<wgt id='1176'> +8.1301145e+01 </wgt>
<wgt id='1177'> +8.3503923e+01 </wgt>
<wgt id='1178'> +7.9772788e+01 </wgt>
<wgt id='1179'> +8.5007885e+01 </wgt>
<wgt id='1180'> +7.9287844e+01 </wgt>
<wgt id='1181'> +8.6900400e+01 </wgt>
<wgt id='1182'> +8.2793277e+01 </wgt>
<wgt id='1183'> +8.0404799e+01 </wgt>
<wgt id='1184'> +7.9200263e+01 </wgt>
<wgt id='1185'> +8.2026053e+01 </wgt>
<wgt id='1186'> +7.9421304e+01 </wgt>
<wgt id='1187'> +7.6129506e+01 </wgt>
<wgt id='1188'> +7.9471402e+01 </wgt>
<wgt id='1189'> +7.6805978e+01 </wgt>
<wgt id='1190'> +8.3413808e+01 </wgt>
<wgt id='1191'> +8.1905386e+01 </wgt>
<wgt id='1192'> +8.1791516e+01 </wgt>
<wgt id='1193'> +7.9653925e+01 </wgt>
<wgt id='1194'> +8.3686118e+01 </wgt>
<wgt id='1195'> +8.3713859e+01 </wgt>
<wgt id='1196'> +8.1095451e+01 </wgt>
<wgt id='1197'> +8.1785488e+01 </wgt>
<wgt id='1198'> +7.9309838e+01 </wgt>
<wgt id='1199'> +8.0603661e+01 </wgt>
<wgt id='1200'> +8.4385593e+01 </wgt>
<wgt id='1201'> +8.0094409e+01 </wgt>
<wgt id='1202'> +8.6609551e+01 </wgt>
<wgt id='1203'> +6.9768994e+01 </wgt>
<wgt id='1204'> +8.0247550e+01 </wgt>
<wgt id='1205'> +8.1627535e+01 </wgt>
<wgt id='1206'> +7.4072794e+01 </wgt>
<wgt id='1207'> +7.8370379e+01 </wgt>
<wgt id='1208'> +8.3764239e+01 </wgt>
<wgt id='1209'> +8.2541324e+01 </wgt>
<wgt id='1210'> +7.9973758e+01 </wgt>
<wgt id='1211'> +8.5150134e+01 </wgt>
<wgt id='1212'> +8.1785305e+01 </wgt>
<wgt id='1213'> +8.1067805e+01 </wgt>
<wgt id='1214'> +8.2584024e+01 </wgt>
<wgt id='1215'> +7.7511695e+01 </wgt>
<wgt id='1216'> +8.1153736e+01 </wgt>
<wgt id='1217'> +8.1067331e+01 </wgt>
<wgt id='1218'> +8.1273015e+01 </wgt>
<wgt id='1219'> +8.1030752e+01 </wgt>
<wgt id='1220'> +8.1742574e+01 </wgt>
<wgt id='1221'> +8.1167317e+01 </wgt>
<wgt id='1222'> +8.0820041e+01 </wgt>
<wgt id='1223'> +8.1230627e+01 </wgt>
<wgt id='1224'> +8.1132094e+01 </wgt>
<wgt id='1225'> +8.1354097e+01 </wgt>
<wgt id='1226'> +8.0409421e+01 </wgt>
<wgt id='1227'> +8.1057152e+01 </wgt>
<wgt id='1228'> +8.1411730e+01 </wgt>
<wgt id='1229'> +8.1414912e+01 </wgt>
<wgt id='1230'> +8.1543383e+01 </wgt>
<wgt id='1231'> +8.0626335e+01 </wgt>
<wgt id='1232'> +8.1855461e+01 </wgt>
<wgt id='1233'> +8.0781058e+01 </wgt>
<wgt id='1234'> +8.1387045e+01 </wgt>
<wgt id='1235'> +8.1089155e+01 </wgt>
<wgt id='1236'> +8.0879657e+01 </wgt>
<wgt id='1237'> +8.1849593e+01 </wgt>
<wgt id='1238'> +8.1168797e+01 </wgt>
<wgt id='1239'> +8.0879647e+01 </wgt>
<wgt id='1240'> +8.1641423e+01 </wgt>
<wgt id='1241'> +8.0845210e+01 </wgt>
<wgt id='1242'> +8.1122549e+01 </wgt>
<wgt id='1243'> +8.1309495e+01 </wgt>
<wgt id='1244'> +8.1096659e+01 </wgt>
<wgt id='1245'> +8.1427977e+01 </wgt>
<wgt id='1246'> +8.1258253e+01 </wgt>
<wgt id='1247'> +8.1620383e+01 </wgt>
<wgt id='1248'> +8.0676077e+01 </wgt>
<wgt id='1249'> +8.1440671e+01 </wgt>
<wgt id='1250'> +8.1140702e+01 </wgt>
<wgt id='1251'> +8.0833209e+01 </wgt>
<wgt id='1252'> +8.0420068e+01 </wgt>
<wgt id='1253'> +8.1017704e+01 </wgt>
<wgt id='1254'> +8.0570623e+01 </wgt>
<wgt id='1255'> +8.0968061e+01 </wgt>
<wgt id='1256'> +8.1069868e+01 </wgt>
<wgt id='1257'> +8.0526069e+01 </wgt>
<wgt id='1258'> +8.1034363e+01 </wgt>
<wgt id='1259'> +8.1863867e+01 </wgt>
<wgt id='1260'> +8.0902810e+01 </wgt>
<wgt id='1261'> +8.1237463e+01 </wgt>
<wgt id='1262'> +8.0884269e+01 </wgt>
<wgt id='1263'> +8.1340610e+01 </wgt>
<wgt id='1264'> +8.1484628e+01 </wgt>
<wgt id='1265'> +8.0933541e+01 </wgt>
<wgt id='1266'> +8.1421787e+01 </wgt>
<wgt id='1267'> +8.1403391e+01 </wgt>
<wgt id='1268'> +8.1099019e+01 </wgt>
<wgt id='1269'> +8.1111817e+01 </wgt>
<wgt id='1270'> +8.1285306e+01 </wgt>
<wgt id='1271'> +8.1100853e+01 </wgt>
<wgt id='1272'> +8.1229512e+01 </wgt>
<wgt id='1273'> +8.1074461e+01 </wgt>
<wgt id='1274'> +8.1087043e+01 </wgt>
<wgt id='1275'> +8.1164724e+01 </wgt>
<wgt id='1276'> +8.1261662e+01 </wgt>
<wgt id='1277'> +8.1289873e+01 </wgt>
<wgt id='1278'> +8.1263722e+01 </wgt>
<wgt id='1279'> +8.1179644e+01 </wgt>
<wgt id='1280'> +8.1117898e+01 </wgt>
<wgt id='1281'> +8.1294114e+01 </wgt>
<wgt id='1282'> +8.1170017e+01 </wgt>
<wgt id='1283'> +8.1096776e+01 </wgt>
<wgt id='1284'> +8.1009553e+01 </wgt>
<wgt id='1285'> +8.1116075e+01 </wgt>
<wgt id='1286'> +8.1171912e+01 </wgt>
<wgt id='1287'> +8.1056665e+01 </wgt>
<wgt id='1288'> +8.1128474e+01 </wgt>
<wgt id='1289'> +8.1004973e+01 </wgt>
<wgt id='1290'> +8.1233475e+01 </wgt>
<wgt id='1291'> +8.1416213e+01 </wgt>
<wgt id='1292'> +8.1088099e+01 </wgt>
<wgt id='1293'> +8.1203459e+01 </wgt>
<wgt id='1294'> +8.1207622e+01 </wgt>
<wgt id='1295'> +8.1348677e+01 </wgt>
<wgt id='1296'> +8.1026576e+01 </wgt>
<wgt id='1297'> +8.1095626e+01 </wgt>
<wgt id='1298'> +8.1111921e+01 </wgt>
<wgt id='1299'> +8.1150887e+01 </wgt>
<wgt id='1300'> +8.1215900e+01 </wgt>
<wgt id='1301'> +8.1092359e+01 </wgt>
<wgt id='1302'> +8.1119553e+01 </wgt>
<wgt id='1303'> +8.1074330e+01 </wgt>
<wgt id='1304'> +8.1155310e+01 </wgt>
<wgt id='1305'> +8.1195329e+01 </wgt>
<wgt id='1306'> +8.1161887e+01 </wgt>
<wgt id='1307'> +8.1191154e+01 </wgt>
<wgt id='1308'> +8.1243060e+01 </wgt>
<wgt id='1309'> +8.1174612e+01 </wgt>
<wgt id='1310'> +8.1194699e+01 </wgt>
<wgt id='1311'> +8.1195625e+01 </wgt>
<wgt id='1312'> +8.1196905e+01 </wgt>
<wgt id='1313'> +8.1105794e+01 </wgt>
<wgt id='1314'> +8.1093415e+01 </wgt>
<wgt id='1315'> +8.1133406e+01 </wgt>
<wgt id='1316'> +8.1272343e+01 </wgt>
<wgt id='1317'> +8.0034688e+01 </wgt>
<wgt id='1318'> +8.2575702e+01 </wgt>
<wgt id='1319'> +9.4949822e+01 </wgt>
<wgt id='1320'> +7.4664436e+01 </wgt>
<wgt id='1321'> +7.5528801e+01 </wgt>
<wgt id='1322'> +7.4125453e+01 </wgt>
<wgt id='1323'> +7.4991789e+01 </wgt>
<wgt id='1324'> +7.4809480e+01 </wgt>
<wgt id='1325'> +7.5967566e+01 </wgt>
<wgt id='1326'> +7.4161338e+01 </wgt>
<wgt id='1327'> +7.5563702e+01 </wgt>
<wgt id='1328'> +7.5236914e+01 </wgt>
<wgt id='1329'> +7.4111018e+01 </wgt>
<wgt id='1330'> +7.4698516e+01 </wgt>
<wgt id='1331'> +7.1761316e+01 </wgt>
<wgt id='1332'> +7.7118550e+01 </wgt>
<wgt id='1333'> +7.3441929e+01 </wgt>
<wgt id='1334'> +7.4515889e+01 </wgt>
<wgt id='1335'> +7.6874428e+01 </wgt>
<wgt id='1336'> +7.1590321e+01 </wgt>
<wgt id='1337'> +7.7789492e+01 </wgt>
<wgt id='1338'> +7.1224418e+01 </wgt>
<wgt id='1339'> +7.4982600e+01 </wgt>
<wgt id='1340'> +7.4224998e+01 </wgt>
<wgt id='1341'> +7.5014714e+01 </wgt>
<wgt id='1342'> +7.3838755e+01 </wgt>
<wgt id='1343'> +7.5611197e+01 </wgt>
<wgt id='1344'> +7.3529521e+01 </wgt>
<wgt id='1345'> +7.4460520e+01 </wgt>
<wgt id='1346'> +7.4878437e+01 </wgt>
<wgt id='1347'> +7.4706525e+01 </wgt>
<wgt id='1348'> +7.4498693e+01 </wgt>
<wgt id='1349'> +7.4573745e+01 </wgt>
<wgt id='1350'> +7.4685829e+01 </wgt>
<wgt id='1351'> +7.5445910e+01 </wgt>
<wgt id='1352'> +7.3646210e+01 </wgt>
<wgt id='1353'> +7.4366738e+01 </wgt>
<wgt id='1354'> +7.5289375e+01 </wgt>
<wgt id='1355'> +7.5825348e+01 </wgt>
<wgt id='1356'> +7.3655746e+01 </wgt>
<wgt id='1357'> +7.5107164e+01 </wgt>
<wgt id='1358'> +7.3389345e+01 </wgt>
<wgt id='1359'> +7.3383812e+01 </wgt>
<wgt id='1360'> +7.4871067e+01 </wgt>
<wgt id='1361'> +7.3643396e+01 </wgt>
<wgt id='1362'> +7.5983440e+01 </wgt>
<wgt id='1363'> +7.5359765e+01 </wgt>
<wgt id='1364'> +7.3483138e+01 </wgt>
<wgt id='1365'> +7.4220749e+01 </wgt>
<wgt id='1366'> +7.3184130e+01 </wgt>
<wgt id='1367'> +7.2089961e+01 </wgt>
<wgt id='1368'> +7.5227114e+01 </wgt>
<wgt id='1369'> +7.3201022e+01 </wgt>
<wgt id='1370'> +7.5156628e+01 </wgt>
<wgt id='1371'> +7.3664173e+01 </wgt>
<wgt id='1372'> +7.2677352e+01 </wgt>
<wgt id='1373'> +7.3734578e+01 </wgt>
<wgt id='1374'> +7.4107461e+01 </wgt>
<wgt id='1375'> +7.4208757e+01 </wgt>
<wgt id='1376'> +7.6521384e+01 </wgt>
<wgt id='1377'> +7.2759263e+01 </wgt>
<wgt id='1378'> +7.6499991e+01 </wgt>
<wgt id='1379'> +7.5340758e+01 </wgt>
<wgt id='1380'> +7.3347914e+01 </wgt>
<wgt id='1381'> +7.7421183e+01 </wgt>
<wgt id='1382'> +6.9920674e+01 </wgt>
<wgt id='1383'> +7.4826114e+01 </wgt>
<wgt id='1384'> +7.7362231e+01 </wgt>
<wgt id='1385'> +7.9355666e+01 </wgt>
<wgt id='1386'> +7.9763964e+01 </wgt>
<wgt id='1387'> +7.8905974e+01 </wgt>
<wgt id='1388'> +7.9213216e+01 </wgt>
<wgt id='1389'> +7.9598499e+01 </wgt>
<wgt id='1390'> +7.9892554e+01 </wgt>
<wgt id='1391'> +7.8726097e+01 </wgt>
<wgt id='1392'> +7.9337864e+01 </wgt>
<wgt id='1393'> +7.9373066e+01 </wgt>
<wgt id='1394'> +7.9397877e+01 </wgt>
<wgt id='1395'> +7.9306574e+01 </wgt>
<wgt id='1396'> +7.9049625e+01 </wgt>
<wgt id='1397'> +7.9509833e+01 </wgt>
<wgt id='1398'> +7.9058500e+01 </wgt>
<wgt id='1399'> +7.9574223e+01 </wgt>
<wgt id='1400'> +7.9712274e+01 </wgt>
<wgt id='1401'> +7.9080614e+01 </wgt>
<wgt id='1402'> +7.8685761e+01 </wgt>
<wgt id='1403'> +7.9662522e+01 </wgt>
<wgt id='1404'> +7.8628545e+01 </wgt>
<wgt id='1405'> +7.9733937e+01 </wgt>
<wgt id='1406'> +7.9124919e+01 </wgt>
<wgt id='1407'> +7.9756543e+01 </wgt>
<wgt id='1408'> +7.8558636e+01 </wgt>
<wgt id='1409'> +8.0969667e+01 </wgt>
<wgt id='1410'> +7.9424096e+01 </wgt>
<wgt id='1411'> +7.9044958e+01 </wgt>
<wgt id='1412'> +7.9723655e+01 </wgt>
<wgt id='1413'> +7.8798499e+01 </wgt>
<wgt id='1414'> +7.8919011e+01 </wgt>
<wgt id='1415'> +7.9674977e+01 </wgt>
<wgt id='1416'> +7.8170803e+01 </wgt>
<wgt id='1417'> +7.9955707e+01 </wgt>
<wgt id='1418'> +7.9393914e+01 </wgt>
<wgt id='1419'> +7.9192512e+01 </wgt>
<wgt id='1420'> +7.8809950e+01 </wgt>
<wgt id='1421'> +7.9481360e+01 </wgt>
<wgt id='1422'> +7.9536689e+01 </wgt>
<wgt id='1423'> +7.9141289e+01 </wgt>
<wgt id='1424'> +7.9672659e+01 </wgt>
<wgt id='1425'> +7.8667820e+01 </wgt>
<wgt id='1426'> +8.0508725e+01 </wgt>
<wgt id='1427'> +7.9396671e+01 </wgt>
<wgt id='1428'> +7.8869286e+01 </wgt>
<wgt id='1429'> +7.8486892e+01 </wgt>
<wgt id='1430'> +8.0375544e+01 </wgt>
<wgt id='1431'> +7.9802049e+01 </wgt>
<wgt id='1432'> +7.9994425e+01 </wgt>
<wgt id='1433'> +8.0412082e+01 </wgt>
<wgt id='1434'> +7.9537281e+01 </wgt>
<wgt id='1435'> +7.9052278e+01 </wgt>
<wgt id='1436'> +6.5891034e+01 </wgt>
<wgt id='1437'> +6.5879026e+01 </wgt>
<wgt id='1438'> +6.6021041e+01 </wgt>
<wgt id='1439'> +6.5899412e+01 </wgt>
<wgt id='1440'> +6.5511544e+01 </wgt>
<wgt id='1441'> +6.6480204e+01 </wgt>
<wgt id='1442'> +6.5662298e+01 </wgt>
<wgt id='1443'> +6.5746102e+01 </wgt>
<wgt id='1444'> +6.5892801e+01 </wgt>
<wgt id='1445'> +6.5247810e+01 </wgt>
<wgt id='1446'> +6.6213549e+01 </wgt>
<wgt id='1447'> +6.5759604e+01 </wgt>
<wgt id='1448'> +6.5726732e+01 </wgt>
<wgt id='1449'> +6.5997157e+01 </wgt>
<wgt id='1450'> +6.5917526e+01 </wgt>
<wgt id='1451'> +6.5925087e+01 </wgt>
<wgt id='1452'> +6.5874106e+01 </wgt>
<wgt id='1453'> +6.6116507e+01 </wgt>
<wgt id='1454'> +6.6041733e+01 </wgt>
<wgt id='1455'> +6.6130879e+01 </wgt>
<wgt id='1456'> +6.6218540e+01 </wgt>
<wgt id='1457'> +6.6218903e+01 </wgt>
<wgt id='1458'> +6.5980427e+01 </wgt>
<wgt id='1459'> +6.6086739e+01 </wgt>
<wgt id='1460'> +6.5819298e+01 </wgt>
<wgt id='1461'> +6.5461594e+01 </wgt>
<wgt id='1462'> +6.5969317e+01 </wgt>
<wgt id='1463'> +6.5506734e+01 </wgt>
<wgt id='1464'> +6.5724461e+01 </wgt>
<wgt id='1465'> +7.3543605e+01 </wgt>
<wgt id='1466'> +7.5080982e+01 </wgt>
<wgt id='1467'> +7.4966761e+01 </wgt>
<wgt id='1468'> +7.4718150e+01 </wgt>
<wgt id='1469'> +7.6028131e+01 </wgt>
<wgt id='1470'> +7.4772558e+01 </wgt>
<wgt id='1471'> +7.5147826e+01 </wgt>
<wgt id='1472'> +7.4513034e+01 </wgt>
<wgt id='1473'> +7.5428325e+01 </wgt>
<wgt id='1474'> +7.5226983e+01 </wgt>
<wgt id='1475'> +7.5243204e+01 </wgt>
<wgt id='1476'> +7.5880825e+01 </wgt>
<wgt id='1477'> +7.4010268e+01 </wgt>
<wgt id='1478'> +7.4832296e+01 </wgt>
<wgt id='1479'> +7.4465178e+01 </wgt>
<wgt id='1480'> +7.4637691e+01 </wgt>
<wgt id='1481'> +7.5066092e+01 </wgt>
<wgt id='1482'> +7.4293868e+01 </wgt>
<wgt id='1483'> +7.5588393e+01 </wgt>
<wgt id='1484'> +7.6333001e+01 </wgt>
<wgt id='1485'> +7.4659114e+01 </wgt>
<wgt id='1486'> +7.5471465e+01 </wgt>
<wgt id='1487'> +7.5358139e+01 </wgt>
<wgt id='1488'> +7.5226950e+01 </wgt>
<wgt id='1489'> +7.5612314e+01 </wgt>
<wgt id='1490'> +7.4884178e+01 </wgt>
<wgt id='1491'> +7.4701166e+01 </wgt>
<wgt id='1492'> +7.5044798e+01 </wgt>
<wgt id='1493'> +7.5499189e+01 </wgt>
<wgt id='1494'> +7.4429189e+01 </wgt>
<wgt id='1495'> +7.5176878e+01 </wgt>
<wgt id='1496'> +7.5815740e+01 </wgt>
<wgt id='1497'> +7.4947032e+01 </wgt>
<wgt id='1498'> +7.5292525e+01 </wgt>
<wgt id='1499'> +7.5418766e+01 </wgt>
<wgt id='1500'> +7.5660949e+01 </wgt>
<wgt id='1501'> +7.5286740e+01 </wgt>
<wgt id='1502'> +7.4939468e+01 </wgt>
<wgt id='1503'> +7.5439798e+01 </wgt>
<wgt id='1504'> +7.4794971e+01 </wgt>
<wgt id='1505'> +7.5358501e+01 </wgt>
<wgt id='1506'> +7.5278033e+01 </wgt>
<wgt id='1507'> +7.5083562e+01 </wgt>
<wgt id='1508'> +7.5243740e+01 </wgt>
<wgt id='1509'> +7.4910817e+01 </wgt>
<wgt id='1510'> +7.5504287e+01 </wgt>
<wgt id='1511'> +7.5254029e+01 </wgt>
<wgt id='1512'> +7.5018214e+01 </wgt>
<wgt id='1513'> +7.4847134e+01 </wgt>
<wgt id='1514'> +7.4865007e+01 </wgt>
<wgt id='1515'> +7.5144219e+01 </wgt>
<wgt id='1516'> +7.5147499e+01 </wgt>
<wgt id='1517'> +7.4957914e+01 </wgt>
<wgt id='1518'> +7.5072678e+01 </wgt>
<wgt id='1519'> +7.5138447e+01 </wgt>
<wgt id='1520'> +7.5084618e+01 </wgt>
<wgt id='1521'> +7.4909495e+01 </wgt>
<wgt id='1522'> +7.5110369e+01 </wgt>
<wgt id='1523'> +7.5198324e+01 </wgt>
<wgt id='1524'> +7.5183510e+01 </wgt>
<wgt id='1525'> +7.5050901e+01 </wgt>
<wgt id='1526'> +7.4953037e+01 </wgt>
<wgt id='1527'> +7.4828682e+01 </wgt>
<wgt id='1528'> +7.5150525e+01 </wgt>
<wgt id='1529'> +7.5212308e+01 </wgt>
<wgt id='1530'> +7.5046570e+01 </wgt>
<wgt id='1531'> +7.5053091e+01 </wgt>
<wgt id='1532'> +7.5255005e+01 </wgt>
<wgt id='1533'> +7.5117667e+01 </wgt>
<wgt id='1534'> +7.5055353e+01 </wgt>
<wgt id='1535'> +7.5053078e+01 </wgt>
<wgt id='1536'> +7.5018421e+01 </wgt>
<wgt id='1537'> +7.5028805e+01 </wgt>
<wgt id='1538'> +7.5054551e+01 </wgt>
<wgt id='1539'> +7.5030976e+01 </wgt>
<wgt id='1540'> +7.5096918e+01 </wgt>
<wgt id='1541'> +7.5101310e+01 </wgt>
<wgt id='1542'> +7.5012237e+01 </wgt>
<wgt id='1543'> +7.5111818e+01 </wgt>
<wgt id='1544'> +7.5102216e+01 </wgt>
<wgt id='1545'> +7.5076524e+01 </wgt>
<wgt id='1546'> +7.5072864e+01 </wgt>
<wgt id='1547'> +7.5102013e+01 </wgt>
<wgt id='1548'> +7.5043784e+01 </wgt>
<wgt id='1549'> +7.5069856e+01 </wgt>
<wgt id='1550'> +7.5128548e+01 </wgt>
<wgt id='1551'> +7.5122516e+01 </wgt>
<wgt id='1552'> +7.5056696e+01 </wgt>
<wgt id='1553'> +7.5044573e+01 </wgt>
<wgt id='1554'> +7.5109458e+01 </wgt>
<wgt id='1555'> +7.5038702e+01 </wgt>
<wgt id='1556'> +7.5083571e+01 </wgt>
<wgt id='1557'> +7.5070380e+01 </wgt>
<wgt id='1558'> +7.5063888e+01 </wgt>
<wgt id='1559'> +7.5097684e+01 </wgt>
<wgt id='1560'> +7.5088814e+01 </wgt>
<wgt id='1561'> +7.5032288e+01 </wgt>
<wgt id='1562'> +7.5083492e+01 </wgt>
<wgt id='1563'> +7.5115381e+01 </wgt>
<wgt id='1564'> +7.5097033e+01 </wgt>
<wgt id='1565'> +7.5079639e+01 </wgt>
<wgt id='1566'> +7.5074276e+01 </wgt>
<wgt id='1567'> +7.3541697e+01 </wgt>
<wgt id='1568'> +7.6377783e+01 </wgt>
<wgt id='1569'> +7.6854536e+01 </wgt>
<wgt id='1570'> +7.6807575e+01 </wgt>
<wgt id='1571'> +7.6930381e+01 </wgt>
<wgt id='1572'> +7.6780494e+01 </wgt>
<wgt id='1573'> +7.7378428e+01 </wgt>
<wgt id='1574'> +7.7471342e+01 </wgt>
<wgt id='1575'> +7.7063475e+01 </wgt>
<wgt id='1576'> +7.7214699e+01 </wgt>
<wgt id='1577'> +7.6917846e+01 </wgt>
<wgt id='1578'> +7.6865204e+01 </wgt>
<wgt id='1579'> +7.6357862e+01 </wgt>
<wgt id='1580'> +7.8068911e+01 </wgt>
<wgt id='1581'> +7.6935954e+01 </wgt>
<wgt id='1582'> +7.6826466e+01 </wgt>
<wgt id='1583'> +7.6643795e+01 </wgt>
<wgt id='1584'> +7.8270661e+01 </wgt>
<wgt id='1585'> +7.6697751e+01 </wgt>
<wgt id='1586'> +7.6647955e+01 </wgt>
<wgt id='1587'> +7.7491813e+01 </wgt>
<wgt id='1588'> +7.5829485e+01 </wgt>
<wgt id='1589'> +7.6686452e+01 </wgt>
<wgt id='1590'> +7.7105272e+01 </wgt>
<wgt id='1591'> +7.5662929e+01 </wgt>
<wgt id='1592'> +7.7177498e+01 </wgt>
<wgt id='1593'> +7.6974692e+01 </wgt>
<wgt id='1594'> +7.6637305e+01 </wgt>
<wgt id='1595'> +7.6520042e+01 </wgt>
<wgt id='1596'> +7.6865087e+01 </wgt>
<wgt id='1597'> +7.6922229e+01 </wgt>
<wgt id='1598'> +7.6462861e+01 </wgt>
<wgt id='1599'> +7.6549304e+01 </wgt>
<wgt id='1600'> +7.6611272e+01 </wgt>
<wgt id='1601'> +7.6439447e+01 </wgt>
<wgt id='1602'> +7.6151677e+01 </wgt>
<wgt id='1603'> +7.6236719e+01 </wgt>
<wgt id='1604'> +7.7523284e+01 </wgt>
<wgt id='1605'> +7.6755953e+01 </wgt>
<wgt id='1606'> +7.6857759e+01 </wgt>
<wgt id='1607'> +7.6438150e+01 </wgt>
<wgt id='1608'> +7.6843913e+01 </wgt>
<wgt id='1609'> +7.6240542e+01 </wgt>
<wgt id='1610'> +7.6816788e+01 </wgt>
<wgt id='1611'> +7.6777215e+01 </wgt>
<wgt id='1612'> +7.6732661e+01 </wgt>
<wgt id='1613'> +7.6959946e+01 </wgt>
<wgt id='1614'> +7.6650781e+01 </wgt>
<wgt id='1615'> +7.6741072e+01 </wgt>
<wgt id='1616'> +7.6840841e+01 </wgt>
<wgt id='1617'> +7.7130096e+01 </wgt>
<wgt id='1618'> +7.6881147e+01 </wgt>
<wgt id='1619'> +7.7301448e+01 </wgt>
<wgt id='1620'> +7.6937597e+01 </wgt>
<wgt id='1621'> +7.6786153e+01 </wgt>
<wgt id='1622'> +7.7001887e+01 </wgt>
<wgt id='1623'> +7.6706274e+01 </wgt>
<wgt id='1624'> +7.6961647e+01 </wgt>
<wgt id='1625'> +7.6778054e+01 </wgt>
<wgt id='1626'> +7.6774578e+01 </wgt>
<wgt id='1627'> +7.6691543e+01 </wgt>
<wgt id='1628'> +7.6834187e+01 </wgt>
<wgt id='1629'> +7.6772917e+01 </wgt>
<wgt id='1630'> +7.6884287e+01 </wgt>
<wgt id='1631'> +7.6843123e+01 </wgt>
<wgt id='1632'> +7.7023201e+01 </wgt>
<wgt id='1633'> +7.6926038e+01 </wgt>
<wgt id='1634'> +7.6634936e+01 </wgt>
<wgt id='1635'> +7.6960810e+01 </wgt>
<wgt id='1636'> +7.6848186e+01 </wgt>
<wgt id='1637'> +7.6945232e+01 </wgt>
<wgt id='1638'> +7.6916465e+01 </wgt>
<wgt id='1639'> +7.6829745e+01 </wgt>
<wgt id='1640'> +7.6919493e+01 </wgt>
<wgt id='1641'> +7.6902273e+01 </wgt>
<wgt id='1642'> +7.6829676e+01 </wgt>
<wgt id='1643'> +7.6921029e+01 </wgt>
<wgt id='1644'> +7.6860964e+01 </wgt>
<wgt id='1645'> +7.6833257e+01 </wgt>
<wgt id='1646'> +7.6873689e+01 </wgt>
<wgt id='1647'> +7.6821294e+01 </wgt>
<wgt id='1648'> +7.6872208e+01 </wgt>
<wgt id='1649'> +7.6858464e+01 </wgt>
<wgt id='1650'> +7.6861223e+01 </wgt>
<wgt id='1651'> +7.6887298e+01 </wgt>
<wgt id='1652'> +7.6903443e+01 </wgt>
<wgt id='1653'> +7.6834355e+01 </wgt>
<wgt id='1654'> +7.6826302e+01 </wgt>
<wgt id='1655'> +7.6813811e+01 </wgt>
<wgt id='1656'> +7.6823660e+01 </wgt>
<wgt id='1657'> +7.6826788e+01 </wgt>
<wgt id='1658'> +7.6822161e+01 </wgt>
<wgt id='1659'> +7.6892771e+01 </wgt>
<wgt id='1660'> +7.6807764e+01 </wgt>
<wgt id='1661'> +7.6830310e+01 </wgt>
<wgt id='1662'> +7.6845506e+01 </wgt>
<wgt id='1663'> +7.6890264e+01 </wgt>
<wgt id='1664'> +7.6846177e+01 </wgt>
<wgt id='1665'> +7.6884646e+01 </wgt>
<wgt id='1666'> +7.6863469e+01 </wgt>
<wgt id='1667'> +7.6842538e+01 </wgt>
<wgt id='1668'> +7.6829377e+01 </wgt>
<wgt id='1669'> +7.6858173e+01 </wgt>
<wgt id='1670'> +7.5297595e+01 </wgt>
<wgt id='1671'> +7.8214781e+01 </wgt>
<wgt id='1672'> +7.5082975e+01 </wgt>
<wgt id='1673'> +7.6069028e+01 </wgt>
<wgt id='1674'> +7.3603393e+01 </wgt>
<wgt id='1675'> +7.5007533e+01 </wgt>
<wgt id='1676'> +7.5504319e+01 </wgt>
<wgt id='1677'> +7.5438368e+01 </wgt>
<wgt id='1678'> +7.5783939e+01 </wgt>
<wgt id='1679'> +7.5249847e+01 </wgt>
<wgt id='1680'> +7.5192717e+01 </wgt>
<wgt id='1681'> +7.5484905e+01 </wgt>
<wgt id='1682'> +7.5222808e+01 </wgt>
<wgt id='1683'> +7.4565682e+01 </wgt>
<wgt id='1684'> +7.4756730e+01 </wgt>
<wgt id='1685'> +7.4997708e+01 </wgt>
<wgt id='1686'> +7.3653577e+01 </wgt>
<wgt id='1687'> +7.4983730e+01 </wgt>
<wgt id='1688'> +7.5196137e+01 </wgt>
<wgt id='1689'> +7.4458971e+01 </wgt>
<wgt id='1690'> +7.4985886e+01 </wgt>
<wgt id='1691'> +7.5237333e+01 </wgt>
<wgt id='1692'> +7.6741124e+01 </wgt>
<wgt id='1693'> +7.5070115e+01 </wgt>
<wgt id='1694'> +7.5129602e+01 </wgt>
<wgt id='1695'> +7.5096506e+01 </wgt>
<wgt id='1696'> +7.5250497e+01 </wgt>
<wgt id='1697'> +7.4988061e+01 </wgt>
<wgt id='1698'> +7.5113420e+01 </wgt>
<wgt id='1699'> +7.4894441e+01 </wgt>
<wgt id='1700'> +7.5185167e+01 </wgt>
<wgt id='1701'> +7.5023477e+01 </wgt>
<wgt id='1702'> +7.5063385e+01 </wgt>
<wgt id='1703'> +7.3541697e+01 </wgt>
<wgt id='1704'> +7.6377783e+01 </wgt>
<wgt id='1705'> +7.6855803e+01 </wgt>
<wgt id='1706'> +7.6987707e+01 </wgt>
<wgt id='1707'> +7.8911572e+01 </wgt>
<wgt id='1708'> +7.6715820e+01 </wgt>
<wgt id='1709'> +7.6427945e+01 </wgt>
<wgt id='1710'> +7.6262913e+01 </wgt>
<wgt id='1711'> +7.6802414e+01 </wgt>
<wgt id='1712'> +7.6719125e+01 </wgt>
<wgt id='1713'> +7.6861322e+01 </wgt>
<wgt id='1714'> +7.5952908e+01 </wgt>
<wgt id='1715'> +7.6975997e+01 </wgt>
<wgt id='1716'> +7.9041710e+01 </wgt>
<wgt id='1717'> +7.6928773e+01 </wgt>
<wgt id='1718'> +7.7188287e+01 </wgt>
<wgt id='1719'> +7.6799063e+01 </wgt>
<wgt id='1720'> +7.7008141e+01 </wgt>
<wgt id='1721'> +7.6889710e+01 </wgt>
<wgt id='1722'> +7.7058693e+01 </wgt>
<wgt id='1723'> +7.6881175e+01 </wgt>
<wgt id='1724'> +7.6907805e+01 </wgt>
<wgt id='1725'> +7.6774341e+01 </wgt>
<wgt id='1726'> +7.6823527e+01 </wgt>
<wgt id='1727'> +7.7176607e+01 </wgt>
<wgt id='1728'> +7.6858826e+01 </wgt>
<wgt id='1729'> +7.6738555e+01 </wgt>
<wgt id='1730'> +7.6966263e+01 </wgt>
<wgt id='1731'> +7.6647896e+01 </wgt>
<wgt id='1732'> +7.6804329e+01 </wgt>
<wgt id='1733'> +7.6764575e+01 </wgt>
<wgt id='1734'> +7.6938127e+01 </wgt>
<wgt id='1735'> +7.6807462e+01 </wgt>
<wgt id='1736'> +7.5297595e+01 </wgt>
<wgt id='1737'> +7.8214781e+01 </wgt>
<wgt id='1738'> +6.7033978e+01 </wgt>
<wgt id='1739'> +6.7209471e+01 </wgt>
<wgt id='1740'> +6.6859611e+01 </wgt>
<wgt id='1741'> +6.6928517e+01 </wgt>
<wgt id='1742'> +6.7139046e+01 </wgt>
<wgt id='1743'> +6.7172794e+01 </wgt>
<wgt id='1744'> +6.6895366e+01 </wgt>
<wgt id='1745'> +6.6755579e+01 </wgt>
<wgt id='1746'> +6.7302751e+01 </wgt>
<wgt id='1747'> +6.7528354e+01 </wgt>
<wgt id='1748'> +6.6543987e+01 </wgt>
<wgt id='1749'> +6.7206733e+01 </wgt>
<wgt id='1750'> +6.6861399e+01 </wgt>
<wgt id='1751'> +6.7027357e+01 </wgt>
<wgt id='1752'> +6.7038918e+01 </wgt>
<wgt id='1753'> +6.6832877e+01 </wgt>
<wgt id='1754'> +6.7191132e+01 </wgt>
<wgt id='1755'> +6.6755759e+01 </wgt>
<wgt id='1756'> +6.7278147e+01 </wgt>
<wgt id='1757'> +6.7121044e+01 </wgt>
<wgt id='1758'> +6.6950595e+01 </wgt>
<wgt id='1759'> +6.6601605e+01 </wgt>
<wgt id='1760'> +6.7408226e+01 </wgt>
<wgt id='1761'> +6.7908356e+01 </wgt>
<wgt id='1762'> +6.5966584e+01 </wgt>
<wgt id='1763'> +6.7144928e+01 </wgt>
<wgt id='1764'> +6.6998799e+01 </wgt>
<wgt id='1765'> +6.7288700e+01 </wgt>
<wgt id='1766'> +6.6806948e+01 </wgt>
<wgt id='1767'> +6.7033978e+01 </wgt>
<wgt id='1768'> +7.0731225e+01 </wgt>
<wgt id='1769'> +6.2854349e+01 </wgt>
<wgt id='1770'> +7.5415338e+01 </wgt>
<wgt id='1771'> +7.1242330e+01 </wgt>
<wgt id='1772'> +6.7030539e+01 </wgt>
<wgt id='1773'> +6.7328873e+01 </wgt>
<wgt id='1774'> +6.7035989e+01 </wgt>
<wgt id='1775'> +6.6997897e+01 </wgt>
<wgt id='1776'> +6.6309082e+01 </wgt>
<wgt id='1777'> +6.7670831e+01 </wgt>
<wgt id='1778'> +6.6294311e+01 </wgt>
<wgt id='1779'> +6.8188132e+01 </wgt>
<wgt id='1780'> +6.3766416e+01 </wgt>
<wgt id='1781'> +6.8319458e+01 </wgt>
<wgt id='1782'> +6.8498715e+01 </wgt>
<wgt id='1783'> +6.8136431e+01 </wgt>
<wgt id='1784'> +6.8150837e+01 </wgt>
<wgt id='1785'> +6.8483617e+01 </wgt>
<wgt id='1786'> +6.8383706e+01 </wgt>
<wgt id='1787'> +6.8250585e+01 </wgt>
<wgt id='1788'> +6.7896954e+01 </wgt>
<wgt id='1789'> +6.8722877e+01 </wgt>
<wgt id='1790'> +6.8655715e+01 </wgt>
<wgt id='1791'> +6.7976392e+01 </wgt>
<wgt id='1792'> +6.8501045e+01 </wgt>
<wgt id='1793'> +6.8137985e+01 </wgt>
<wgt id='1794'> +6.8163575e+01 </wgt>
<wgt id='1795'> +6.8470832e+01 </wgt>
<wgt id='1796'> +6.8240790e+01 </wgt>
<wgt id='1797'> +6.8372001e+01 </wgt>
<wgt id='1798'> +6.8494586e+01 </wgt>
<wgt id='1799'> +6.8128421e+01 </wgt>
<wgt id='1800'> +6.8288901e+01 </wgt>
<wgt id='1801'> +6.8354109e+01 </wgt>
<wgt id='1802'> +6.8489561e+01 </wgt>
<wgt id='1803'> +6.8060810e+01 </wgt>
<wgt id='1804'> +6.9408473e+01 </wgt>
<wgt id='1805'> +6.7261001e+01 </wgt>
<wgt id='1806'> +7.0132918e+01 </wgt>
<wgt id='1807'> +6.6536230e+01 </wgt>
<wgt id='1808'> +6.9793363e+01 </wgt>
<wgt id='1809'> +6.6995907e+01 </wgt>
<wgt id='1810'> +6.8320958e+01 </wgt>
<wgt id='1811'> +7.2701681e+01 </wgt>
<wgt id='1812'> +6.3799528e+01 </wgt>
<wgt id='1813'> +7.7281389e+01 </wgt>
<wgt id='1814'> +7.1562262e+01 </wgt>
<wgt id='1815'> +7.1048578e+01 </wgt>
<wgt id='1816'> +6.8023159e+01 </wgt>
<wgt id='1817'> +6.8217624e+01 </wgt>
<wgt id='1818'> +6.7924852e+01 </wgt>
<wgt id='1819'> +6.8331039e+01 </wgt>
<wgt id='1820'> +7.1677522e+01 </wgt>
<wgt id='1821'> +6.9280013e+01 </wgt>
<wgt id='1822'> +6.7334405e+01 </wgt>
<wgt id='1823'> +6.7490711e+01 </wgt>
<wgt id='1824'> +7.3841819e+01 </wgt>
<wgt id='1825'> +7.3802043e+01 </wgt>
<wgt id='1826'> +7.3761891e+01 </wgt>
<wgt id='1827'> +7.3721992e+01 </wgt>
<wgt id='1828'> +7.3682385e+01 </wgt>
<wgt id='1829'> +7.3642156e+01 </wgt>
<wgt id='1830'> +7.3602569e+01 </wgt>
<wgt id='1831'> +7.3562478e+01 </wgt>
<wgt id='1832'> +7.3522772e+01 </wgt>
<wgt id='1833'> +7.3483053e+01 </wgt>
<wgt id='1834'> +7.3442876e+01 </wgt>
<wgt id='1835'> +7.3403325e+01 </wgt>
<wgt id='1836'> +7.3363161e+01 </wgt>
<wgt id='1837'> +7.3323660e+01 </wgt>
<wgt id='1838'> +7.3283867e+01 </wgt>
<wgt id='1839'> +7.3243806e+01 </wgt>
<wgt id='1840'> +7.3204214e+01 </wgt>
<wgt id='1841'> +7.3164246e+01 </wgt>
<wgt id='1842'> +7.3124613e+01 </wgt>
<wgt id='1843'> +7.3085002e+01 </wgt>
<wgt id='1844'> +7.3045046e+01 </wgt>
<wgt id='1845'> +7.3005422e+01 </wgt>
<wgt id='1846'> +7.2965413e+01 </wgt>
<wgt id='1847'> +7.2925959e+01 </wgt>
<wgt id='1848'> +7.2886434e+01 </wgt>
<wgt id='1849'> +7.2846506e+01 </wgt>
<wgt id='1850'> +7.2806936e+01 </wgt>
<wgt id='1851'> +7.2767285e+01 </wgt>
<wgt id='1852'> +7.2727569e+01 </wgt>
<wgt id='1853'> +7.2687957e+01 </wgt>
<wgt id='1854'> +7.2648209e+01 </wgt>
<wgt id='1855'> +7.6496125e+01 </wgt>
<wgt id='1856'> +7.6420289e+01 </wgt>
<wgt id='1857'> +7.6563341e+01 </wgt>
<wgt id='1858'> +7.6424810e+01 </wgt>
<wgt id='1859'> +7.7011750e+01 </wgt>
<wgt id='1860'> +7.7107568e+01 </wgt>
<wgt id='1861'> +7.6726091e+01 </wgt>
<wgt id='1862'> +7.6877283e+01 </wgt>
<wgt id='1863'> +7.6561225e+01 </wgt>
<wgt id='1864'> +7.6509006e+01 </wgt>
<wgt id='1865'> +7.5995362e+01 </wgt>
<wgt id='1866'> +7.7734471e+01 </wgt>
<wgt id='1867'> +7.6591363e+01 </wgt>
<wgt id='1868'> +7.6480392e+01 </wgt>
<wgt id='1869'> +7.6283913e+01 </wgt>
<wgt id='1870'> +7.7867098e+01 </wgt>
<wgt id='1871'> +7.6368783e+01 </wgt>
<wgt id='1872'> +7.6277534e+01 </wgt>
<wgt id='1873'> +7.7124060e+01 </wgt>
<wgt id='1874'> +7.5492786e+01 </wgt>
<wgt id='1875'> +7.6349669e+01 </wgt>
<wgt id='1876'> +7.6736103e+01 </wgt>
<wgt id='1877'> +7.5302269e+01 </wgt>
<wgt id='1878'> +7.6827988e+01 </wgt>
<wgt id='1879'> +7.6603576e+01 </wgt>
<wgt id='1880'> +7.6257804e+01 </wgt>
<wgt id='1881'> +7.6141918e+01 </wgt>
<wgt id='1882'> +7.6531169e+01 </wgt>
<wgt id='1883'> +7.6572883e+01 </wgt>
<wgt id='1884'> +7.6094503e+01 </wgt>
<wgt id='1885'> +7.6181017e+01 </wgt>
<wgt id='1886'> +7.6278448e+01 </wgt>
<wgt id='1887'> +7.6072603e+01 </wgt>
<wgt id='1888'> +7.5787214e+01 </wgt>
<wgt id='1889'> +7.5879418e+01 </wgt>
<wgt id='1890'> +7.7157165e+01 </wgt>
<wgt id='1891'> +7.6400233e+01 </wgt>
<wgt id='1892'> +7.6499847e+01 </wgt>
<wgt id='1893'> +7.6077962e+01 </wgt>
<wgt id='1894'> +7.6476556e+01 </wgt>
<wgt id='1895'> +7.5885063e+01 </wgt>
<wgt id='1896'> +7.6453516e+01 </wgt>
<wgt id='1897'> +7.6415624e+01 </wgt>
<wgt id='1898'> +7.6386860e+01 </wgt>
<wgt id='1899'> +7.6597831e+01 </wgt>
<wgt id='1900'> +7.6291348e+01 </wgt>
<wgt id='1901'> +7.6390416e+01 </wgt>
<wgt id='1902'> +7.6477734e+01 </wgt>
<wgt id='1903'> +7.6775254e+01 </wgt>
<wgt id='1904'> +7.6521675e+01 </wgt>
<wgt id='1905'> +7.6943700e+01 </wgt>
<wgt id='1906'> +7.6576493e+01 </wgt>
<wgt id='1907'> +7.6427385e+01 </wgt>
<wgt id='1908'> +7.6642932e+01 </wgt>
<wgt id='1909'> +7.6351689e+01 </wgt>
<wgt id='1910'> +7.6605568e+01 </wgt>
<wgt id='1911'> +7.6411971e+01 </wgt>
<wgt id='1912'> +7.6417096e+01 </wgt>
<wgt id='1913'> +7.6340196e+01 </wgt>
<wgt id='1914'> +7.6479977e+01 </wgt>
<wgt id='1915'> +7.6418926e+01 </wgt>
<wgt id='1916'> +7.6527217e+01 </wgt>
<wgt id='1917'> +7.6482635e+01 </wgt>
<wgt id='1918'> +7.6660835e+01 </wgt>
<wgt id='1919'> +7.6570311e+01 </wgt>
<wgt id='1920'> +7.6275760e+01 </wgt>
<wgt id='1921'> +7.6601290e+01 </wgt>
<wgt id='1922'> +7.6485814e+01 </wgt>
<wgt id='1923'> +7.6587456e+01 </wgt>
<wgt id='1924'> +7.6553979e+01 </wgt>
<wgt id='1925'> +7.6469930e+01 </wgt>
<wgt id='1926'> +7.6562469e+01 </wgt>
<wgt id='1927'> +7.6541312e+01 </wgt>
<wgt id='1928'> +7.6469059e+01 </wgt>
<wgt id='1929'> +7.6562765e+01 </wgt>
<wgt id='1930'> +7.6503233e+01 </wgt>
<wgt id='1931'> +7.6479966e+01 </wgt>
<wgt id='1932'> +7.6515769e+01 </wgt>
<wgt id='1933'> +7.6466000e+01 </wgt>
<wgt id='1934'> +7.6514097e+01 </wgt>
<wgt id='1935'> +7.6495775e+01 </wgt>
<wgt id='1936'> +7.6507381e+01 </wgt>
<wgt id='1937'> +7.6530018e+01 </wgt>
<wgt id='1938'> +7.6544622e+01 </wgt>
<wgt id='1939'> +7.6474121e+01 </wgt>
<wgt id='1940'> +7.6469123e+01 </wgt>
<wgt id='1941'> +7.6460747e+01 </wgt>
<wgt id='1942'> +7.6463370e+01 </wgt>
<wgt id='1943'> +7.6466089e+01 </wgt>
<wgt id='1944'> +7.6461005e+01 </wgt>
<wgt id='1945'> +7.6533193e+01 </wgt>
<wgt id='1946'> +7.6446407e+01 </wgt>
<wgt id='1947'> +7.6469453e+01 </wgt>
<wgt id='1948'> +7.6488454e+01 </wgt>
<wgt id='1949'> +7.6528067e+01 </wgt>
<wgt id='1950'> +7.6487255e+01 </wgt>
<wgt id='1951'> +7.6528094e+01 </wgt>
<wgt id='1952'> +7.6505420e+01 </wgt>
<wgt id='1953'> +7.6483249e+01 </wgt>
<wgt id='1954'> +7.6473102e+01 </wgt>
<wgt id='1955'> +7.6500905e+01 </wgt>
<wgt id='1956'> +7.6495863e+01 </wgt>
<wgt id='1957'> +7.6497526e+01 </wgt>
<wgt id='1958'> +7.6496391e+01 </wgt>
<wgt id='1959'> +7.6496440e+01 </wgt>
<wgt id='1960'> +7.6496912e+01 </wgt>
<wgt id='1961'> +7.6496239e+01 </wgt>
<wgt id='1962'> +7.6497800e+01 </wgt>
</rwgt>
</event>
<event npLO=" -1 " npNLO=" 1 ">
 7      1 +1.5146096e+02 1.10972360e+01 7.54677110e-03 1.18617030e-01
        2 -1    0    0  502    0 +0.0000000000e+00 +0.0000000000e+00 +1.3571834000e+02 1.3571834000e+02 0.0000000000e+00 0.0000e+00 9.0000e+00
       21 -1    0    0  501  502 +0.0000000000e+00 +0.0000000000e+00 -2.0761757000e+02 2.0761757000e+02 0.0000000000e+00 0.0000e+00 9.0000e+00
       23  2    1    2    0    0 -2.1927861000e+01 +2.2691837000e+01 +1.1615133000e+02 1.5254819000e+02 9.3723359000e+01 0.0000e+00 0.0000e+00
       15  1    3    3    0    0 +2.3952471000e-01 +3.2014865000e+01 +1.2329682000e+02 1.2739808000e+02 1.7770000000e+00 0.0000e+00 9.0000e+00
      -15  1    3    3    0    0 -2.2167386000e+01 -9.3230278000e+00 -7.1454919000e+00 2.5150102000e+01 1.7770000000e+00 0.0000e+00 9.0000e+00
       22  1    1    2    0    0 +1.2700746000e+01 -1.6526694000e+01 -1.1069534000e+02 1.1264058000e+02 0.0000000000e+00 0.0000e+00 9.0000e+00
        2  1    1    2  501    0 +9.2271152000e+00 -6.1651432000e+00 -7.7355209000e+01 7.8147150000e+01 0.0000000000e+00 0.0000e+00 9.0000e+00
#aMCatNLO 1  0  0  2  1 0.13649626E+01 0.00000000E+00 -9  7  0 0.00000000E+00 0.00000000E+00 0.00000000E+00 0.00000000E+00 0.00000000E+00
<rwgt>
<wgt id='1001'> +1.5146000e+02 </wgt>
<wgt id='1002'> +1.5146000e+02 </wgt>
<wgt id='1003'> +1.4430000e+02 </wgt>
<wgt id='1004'> +1.5105000e+02 </wgt>
<wgt id='1005'> +1.5089000e+02 </wgt>
<wgt id='1006'> +1.5139000e+02 </wgt>
<wgt id='1007'> +1.3985000e+02 </wgt>
<wgt id='1008'> +1.5198000e+02 </wgt>
<wgt id='1009'> +1.5236000e+02 </wgt>
<wgt id='1010'> +1.4996000e+02 </wgt>
<wgt id='1011'> +1.5059000e+02 </wgt>
<wgt id='1012'> +1.4550000e+02 </wgt>
<wgt id='1013'> +1.5120000e+02 </wgt>
<wgt id='1014'> +1.5229000e+02 </wgt>
<wgt id='1015'> +1.5250000e+02 </wgt>
<wgt id='1016'> +1.5034000e+02 </wgt>
<wgt id='1017'> +1.5271000e+02 </wgt>
<wgt id='1018'> +1.4975000e+02 </wgt>
<wgt id='1019'> +1.5201000e+02 </wgt>
<wgt id='1020'> +1.4871000e+02 </wgt>
<wgt id='1021'> +1.5528000e+02 </wgt>
<wgt id='1022'> +1.5268000e+02 </wgt>
<wgt id='1023'> +1.5355000e+02 </wgt>
<wgt id='1024'> +1.4871000e+02 </wgt>
<wgt id='1025'> +1.5851000e+02 </wgt>
<wgt id='1026'> +1.5268000e+02 </wgt>
<wgt id='1027'> +1.5281000e+02 </wgt>
<wgt id='1028'> +1.4916000e+02 </wgt>
<wgt id='1029'> +1.4988000e+02 </wgt>
<wgt id='1030'> +1.5452000e+02 </wgt>
<wgt id='1031'> +1.5094000e+02 </wgt>
<wgt id='1032'> +1.5241000e+02 </wgt>
<wgt id='1033'> +1.5085000e+02 </wgt>
<wgt id='1034'> +1.4787000e+02 </wgt>
<wgt id='1035'> +1.5058000e+02 </wgt>
<wgt id='1036'> +1.5015000e+02 </wgt>
<wgt id='1037'> +1.5238000e+02 </wgt>
<wgt id='1038'> +1.5365000e+02 </wgt>
<wgt id='1039'> +1.5074000e+02 </wgt>
<wgt id='1040'> +1.5248000e+02 </wgt>
<wgt id='1041'> +1.4978000e+02 </wgt>
<wgt id='1042'> +1.5197000e+02 </wgt>
<wgt id='1043'> +1.5653000e+02 </wgt>
<wgt id='1044'> +1.5341000e+02 </wgt>
<wgt id='1045'> +1.5172000e+02 </wgt>
<wgt id='1046'> +1.4837000e+02 </wgt>
<wgt id='1047'> +1.4997000e+02 </wgt>
<wgt id='1048'> +1.5387000e+02 </wgt>
<wgt id='1049'> +1.4957000e+02 </wgt>
<wgt id='1050'> +1.5132000e+02 </wgt>
<wgt id='1051'> +1.4823000e+02 </wgt>
<wgt id='1052'> +1.5180000e+02 </wgt>
<wgt id='1053'> +1.5362000e+02 </wgt>
<wgt id='1054'> +1.4805000e+02 </wgt>
<wgt id='1055'> +1.5187000e+02 </wgt>
<wgt id='1056'> +1.5327000e+02 </wgt>
<wgt id='1057'> +1.5160000e+02 </wgt>
<wgt id='1058'> +1.4906000e+02 </wgt>
<wgt id='1059'> +1.5398000e+02 </wgt>
<wgt id='1060'> +1.5103000e+02 </wgt>
<wgt id='1061'> +1.5233000e+02 </wgt>
<wgt id='1062'> +1.5137000e+02 </wgt>
<wgt id='1063'> +1.5036000e+02 </wgt>
<wgt id='1064'> +1.5196000e+02 </wgt>
<wgt id='1065'> +1.5610000e+02 </wgt>
<wgt id='1066'> +1.4574000e+02 </wgt>
<wgt id='1067'> +1.5418000e+02 </wgt>
<wgt id='1068'> +1.5063000e+02 </wgt>
<wgt id='1069'> +1.5876000e+02 </wgt>
<wgt id='1070'> +1.5016000e+02 </wgt>
<wgt id='1071'> +1.5121000e+02 </wgt>
<wgt id='1072'> +1.4865000e+02 </wgt>
<wgt id='1073'> +1.5340000e+02 </wgt>
<wgt id='1074'> +1.5246000e+02 </wgt>
<wgt id='1075'> +1.4802000e+02 </wgt>
<wgt id='1076'> +1.5332000e+02 </wgt>
<wgt id='1077'> +1.5423000e+02 </wgt>
<wgt id='1078'> +1.4970000e+02 </wgt>
<wgt id='1079'> +1.5120000e+02 </wgt>
<wgt id='1080'> +1.5401000e+02 </wgt>
<wgt id='1081'> +1.5188000e+02 </wgt>
<wgt id='1082'> +1.5030000e+02 </wgt>
<wgt id='1083'> +1.5306000e+02 </wgt>
<wgt id='1084'> +1.5096000e+02 </wgt>
<wgt id='1085'> +1.5337000e+02 </wgt>
<wgt id='1086'> +1.5162000e+02 </wgt>
<wgt id='1087'> +1.5107000e+02 </wgt>
<wgt id='1088'> +1.5198000e+02 </wgt>
<wgt id='1089'> +1.5315000e+02 </wgt>
<wgt id='1090'> +1.5260000e+02 </wgt>
<wgt id='1091'> +1.5546000e+02 </wgt>
<wgt id='1092'> +1.5280000e+02 </wgt>
<wgt id='1093'> +1.5019000e+02 </wgt>
<wgt id='1094'> +1.4955000e+02 </wgt>
<wgt id='1095'> +1.5007000e+02 </wgt>
<wgt id='1096'> +1.5458000e+02 </wgt>
<wgt id='1097'> +1.4693000e+02 </wgt>
<wgt id='1098'> +1.5457000e+02 </wgt>
<wgt id='1099'> +1.5202000e+02 </wgt>
<wgt id='1100'> +1.5535000e+02 </wgt>
<wgt id='1101'> +1.5288000e+02 </wgt>
<wgt id='1102'> +1.4755000e+02 </wgt>
<wgt id='1103'> +1.4965000e+02 </wgt>
<wgt id='1104'> +1.5247000e+02 </wgt>
<wgt id='1105'> +1.5146096e+02 </wgt>
<wgt id='1106'> +6.9414628e+01 </wgt>
<wgt id='1107'> +8.3318717e+01 </wgt>
<wgt id='1108'> +9.3307513e+01 </wgt>
<wgt id='1109'> +8.3796914e+01 </wgt>
<wgt id='1110'> +1.0532977e+02 </wgt>
<wgt id='1111'> +5.9677563e+01 </wgt>
<wgt id='1112'> +5.6175093e+01 </wgt>
<wgt id='1113'> +6.3377582e+01 </wgt>
<wgt id='1114'> +7.7504637e+01 </wgt>
<wgt id='1115'> +7.9913522e+01 </wgt>
<wgt id='1116'> +7.6571712e+01 </wgt>
<wgt id='1117'> +7.7325701e+01 </wgt>
<wgt id='1118'> +7.6717613e+01 </wgt>
<wgt id='1119'> +7.6972014e+01 </wgt>
<wgt id='1120'> +7.8228282e+01 </wgt>
<wgt id='1121'> +7.7197721e+01 </wgt>
<wgt id='1122'> +7.6201538e+01 </wgt>
<wgt id='1123'> +7.6265306e+01 </wgt>
<wgt id='1124'> +7.7650206e+01 </wgt>
<wgt id='1125'> +7.8434816e+01 </wgt>
<wgt id='1126'> +7.5943809e+01 </wgt>
<wgt id='1127'> +7.6855220e+01 </wgt>
<wgt id='1128'> +7.7065614e+01 </wgt>
<wgt id='1129'> +7.8919642e+01 </wgt>
<wgt id='1130'> +7.8950680e+01 </wgt>
<wgt id='1131'> +7.9440074e+01 </wgt>
<wgt id='1132'> +7.7037134e+01 </wgt>
<wgt id='1133'> +7.7238672e+01 </wgt>
<wgt id='1134'> +7.6058572e+01 </wgt>
<wgt id='1135'> +7.5908901e+01 </wgt>
<wgt id='1136'> +7.7008533e+01 </wgt>
<wgt id='1137'> +7.7621127e+01 </wgt>
<wgt id='1138'> +7.6625534e+01 </wgt>
<wgt id='1139'> +7.5039458e+01 </wgt>
<wgt id='1140'> +7.9238092e+01 </wgt>
<wgt id='1141'> +7.7457181e+01 </wgt>
<wgt id='1142'> +7.6866792e+01 </wgt>
<wgt id='1143'> +7.9991082e+01 </wgt>
<wgt id='1144'> +7.7646284e+01 </wgt>
<wgt id='1145'> +7.8712095e+01 </wgt>
<wgt id='1146'> +7.5987426e+01 </wgt>
<wgt id='1147'> +7.6179341e+01 </wgt>
<wgt id='1148'> +7.6414727e+01 </wgt>
<wgt id='1149'> +7.9990912e+01 </wgt>
<wgt id='1150'> +7.6222610e+01 </wgt>
<wgt id='1151'> +7.8204231e+01 </wgt>
<wgt id='1152'> +7.6472716e+01 </wgt>
<wgt id='1153'> +7.7427107e+01 </wgt>
<wgt id='1154'> +7.7703891e+01 </wgt>
<wgt id='1155'> +7.7414660e+01 </wgt>
<wgt id='1156'> +7.6967533e+01 </wgt>
<wgt id='1157'> +7.7916979e+01 </wgt>
<wgt id='1158'> +7.7424269e+01 </wgt>
<wgt id='1159'> +7.8759798e+01 </wgt>
<wgt id='1160'> +7.9557412e+01 </wgt>
<wgt id='1161'> +7.5951034e+01 </wgt>
<wgt id='1162'> +7.5789134e+01 </wgt>
<wgt id='1163'> +7.9052834e+01 </wgt>
<wgt id='1164'> +7.9761503e+01 </wgt>
<wgt id='1165'> +7.8544712e+01 </wgt>
<wgt id='1166'> +7.5780699e+01 </wgt>
<wgt id='1167'> +7.7381857e+01 </wgt>
<wgt id='1168'> +7.9495447e+01 </wgt>
<wgt id='1169'> +7.8238290e+01 </wgt>
<wgt id='1170'> +7.6572401e+01 </wgt>
<wgt id='1171'> +7.8556219e+01 </wgt>
<wgt id='1172'> +7.4854544e+01 </wgt>
<wgt id='1173'> +7.7933594e+01 </wgt>
<wgt id='1174'> +7.8829575e+01 </wgt>
<wgt id='1175'> +7.7294779e+01 </wgt>
<wgt id='1176'> +7.7311497e+01 </wgt>
<wgt id='1177'> +7.8233834e+01 </wgt>
<wgt id='1178'> +7.6474292e+01 </wgt>
<wgt id='1179'> +7.7448920e+01 </wgt>
<wgt id='1180'> +7.7763333e+01 </wgt>
<wgt id='1181'> +7.8931092e+01 </wgt>
<wgt id='1182'> +7.8262056e+01 </wgt>
<wgt id='1183'> +7.7072259e+01 </wgt>
<wgt id='1184'> +7.6988440e+01 </wgt>
<wgt id='1185'> +7.7555659e+01 </wgt>
<wgt id='1186'> +8.2055131e+01 </wgt>
<wgt id='1187'> +7.4257308e+01 </wgt>
<wgt id='1188'> +7.6912250e+01 </wgt>
<wgt id='1189'> +7.7161809e+01 </wgt>
<wgt id='1190'> +7.9802828e+01 </wgt>
<wgt id='1191'> +7.5039074e+01 </wgt>
<wgt id='1192'> +7.7753972e+01 </wgt>
<wgt id='1193'> +7.6662113e+01 </wgt>
<wgt id='1194'> +7.8050470e+01 </wgt>
<wgt id='1195'> +7.5870281e+01 </wgt>
<wgt id='1196'> +7.8950680e+01 </wgt>
<wgt id='1197'> +7.7868258e+01 </wgt>
<wgt id='1198'> +7.6983028e+01 </wgt>
<wgt id='1199'> +7.8488487e+01 </wgt>
<wgt id='1200'> +7.6833552e+01 </wgt>
<wgt id='1201'> +7.7788762e+01 </wgt>
<wgt id='1202'> +7.8235714e+01 </wgt>
<wgt id='1203'> +7.7130318e+01 </wgt>
<wgt id='1204'> +7.6910712e+01 </wgt>
<wgt id='1205'> +7.7834970e+01 </wgt>
<wgt id='1206'> +7.8341135e+01 </wgt>
<wgt id='1207'> +7.7776279e+01 </wgt>
<wgt id='1208'> +7.8608071e+01 </wgt>
<wgt id='1209'> +7.6835345e+01 </wgt>
<wgt id='1210'> +7.6277497e+01 </wgt>
<wgt id='1211'> +7.7102568e+01 </wgt>
<wgt id='1212'> +7.7214916e+01 </wgt>
<wgt id='1213'> +7.6659244e+01 </wgt>
<wgt id='1214'> +7.7057119e+01 </wgt>
<wgt id='1215'> +7.5601671e+01 </wgt>
<wgt id='1216'> +7.8027563e+01 </wgt>
<wgt id='1217'> +7.8096360e+01 </wgt>
<wgt id='1218'> +7.8025508e+01 </wgt>
<wgt id='1219'> +7.8090427e+01 </wgt>
<wgt id='1220'> +7.8165575e+01 </wgt>
<wgt id='1221'> +7.8168153e+01 </wgt>
<wgt id='1222'> +7.8025148e+01 </wgt>
<wgt id='1223'> +7.8180925e+01 </wgt>
<wgt id='1224'> +7.7839850e+01 </wgt>
<wgt id='1225'> +7.8219582e+01 </wgt>
<wgt id='1226'> +7.7712507e+01 </wgt>
<wgt id='1227'> +7.7972657e+01 </wgt>
<wgt id='1228'> +7.8185352e+01 </wgt>
<wgt id='1229'> +7.7961191e+01 </wgt>
<wgt id='1230'> +7.8381613e+01 </wgt>
<wgt id='1231'> +7.7695314e+01 </wgt>
<wgt id='1232'> +7.8153837e+01 </wgt>
<wgt id='1233'> +7.8050299e+01 </wgt>
<wgt id='1234'> +7.8262912e+01 </wgt>
<wgt id='1235'> +7.7747170e+01 </wgt>
<wgt id='1236'> +7.7499511e+01 </wgt>
<wgt id='1237'> +7.8189500e+01 </wgt>
<wgt id='1238'> +7.8107800e+01 </wgt>
<wgt id='1239'> +7.7962641e+01 </wgt>
<wgt id='1240'> +7.8077888e+01 </wgt>
<wgt id='1241'> +7.7720982e+01 </wgt>
<wgt id='1242'> +7.8107332e+01 </wgt>
<wgt id='1243'> +7.8036461e+01 </wgt>
<wgt id='1244'> +7.7708958e+01 </wgt>
<wgt id='1245'> +7.8482169e+01 </wgt>
<wgt id='1246'> +7.8496638e+01 </wgt>
<wgt id='1247'> +7.7656822e+01 </wgt>
<wgt id='1248'> +7.8133264e+01 </wgt>
<wgt id='1249'> +7.8037904e+01 </wgt>
<wgt id='1250'> +7.8100813e+01 </wgt>
<wgt id='1251'> +7.8046500e+01 </wgt>
<wgt id='1252'> +7.8035525e+01 </wgt>
<wgt id='1253'> +7.7951265e+01 </wgt>
<wgt id='1254'> +7.7995268e+01 </wgt>
<wgt id='1255'> +7.7960152e+01 </wgt>
<wgt id='1256'> +7.8043524e+01 </wgt>
<wgt id='1257'> +7.7803149e+01 </wgt>
<wgt id='1258'> +7.8063624e+01 </wgt>
<wgt id='1259'> +7.7980061e+01 </wgt>
<wgt id='1260'> +7.8018344e+01 </wgt>
<wgt id='1261'> +7.8099156e+01 </wgt>
<wgt id='1262'> +7.7944074e+01 </wgt>
<wgt id='1263'> +7.7896118e+01 </wgt>
<wgt id='1264'> +7.8100694e+01 </wgt>
<wgt id='1265'> +7.8211094e+01 </wgt>
<wgt id='1266'> +7.8016340e+01 </wgt>
<wgt id='1267'> +7.8067027e+01 </wgt>
<wgt id='1268'> +7.8050256e+01 </wgt>
<wgt id='1269'> +7.7986103e+01 </wgt>
<wgt id='1270'> +7.8044454e+01 </wgt>
<wgt id='1271'> +7.8017188e+01 </wgt>
<wgt id='1272'> +7.8237164e+01 </wgt>
<wgt id='1273'> +7.7962942e+01 </wgt>
<wgt id='1274'> +7.7910600e+01 </wgt>
<wgt id='1275'> +7.7976734e+01 </wgt>
<wgt id='1276'> +7.8091509e+01 </wgt>
<wgt id='1277'> +7.8071450e+01 </wgt>
<wgt id='1278'> +7.8057041e+01 </wgt>
<wgt id='1279'> +7.8053535e+01 </wgt>
<wgt id='1280'> +7.8051968e+01 </wgt>
<wgt id='1281'> +7.8085049e+01 </wgt>
<wgt id='1282'> +7.8002511e+01 </wgt>
<wgt id='1283'> +7.7956820e+01 </wgt>
<wgt id='1284'> +7.8027488e+01 </wgt>
<wgt id='1285'> +7.7935383e+01 </wgt>
<wgt id='1286'> +7.7940577e+01 </wgt>
<wgt id='1287'> +7.8083024e+01 </wgt>
<wgt id='1288'> +7.8037733e+01 </wgt>
<wgt id='1289'> +7.7967745e+01 </wgt>
<wgt id='1290'> +7.8051599e+01 </wgt>
<wgt id='1291'> +7.7955653e+01 </wgt>
<wgt id='1292'> +7.8053666e+01 </wgt>
<wgt id='1293'> +7.7989628e+01 </wgt>
<wgt id='1294'> +7.8000394e+01 </wgt>
<wgt id='1295'> +7.7998786e+01 </wgt>
<wgt id='1296'> +7.8072456e+01 </wgt>
<wgt id='1297'> +7.7984637e+01 </wgt>
<wgt id='1298'> +7.8050587e+01 </wgt>
<wgt id='1299'> +7.8065475e+01 </wgt>
<wgt id='1300'> +7.8028382e+01 </wgt>
<wgt id='1301'> +7.8046801e+01 </wgt>
<wgt id='1302'> +7.7993747e+01 </wgt>
<wgt id='1303'> +7.8020827e+01 </wgt>
<wgt id='1304'> +7.8012751e+01 </wgt>
<wgt id='1305'> +7.8009201e+01 </wgt>
<wgt id='1306'> +7.8046755e+01 </wgt>
<wgt id='1307'> +7.8017442e+01 </wgt>
<wgt id='1308'> +7.8015347e+01 </wgt>
<wgt id='1309'> +7.8064950e+01 </wgt>
<wgt id='1310'> +7.7975066e+01 </wgt>
<wgt id='1311'> +7.8028991e+01 </wgt>
<wgt id='1312'> +7.8058947e+01 </wgt>
<wgt id='1313'> +7.8039833e+01 </wgt>
<wgt id='1314'> +7.8008801e+01 </wgt>
<wgt id='1315'> +7.8043157e+01 </wgt>
<wgt id='1316'> +7.8065495e+01 </wgt>
<wgt id='1317'> +7.6511773e+01 </wgt>
<wgt id='1318'> +7.9746972e+01 </wgt>
<wgt id='1319'> +7.6585117e+01 </wgt>
<wgt id='1320'> +7.5896311e+01 </wgt>
<wgt id='1321'> +7.5848032e+01 </wgt>
<wgt id='1322'> +7.6534810e+01 </wgt>
<wgt id='1323'> +7.6071364e+01 </wgt>
<wgt id='1324'> +7.5096604e+01 </wgt>
<wgt id='1325'> +7.6202692e+01 </wgt>
<wgt id='1326'> +7.6236211e+01 </wgt>
<wgt id='1327'> +7.6155519e+01 </wgt>
<wgt id='1328'> +7.5901654e+01 </wgt>
<wgt id='1329'> +7.4968734e+01 </wgt>
<wgt id='1330'> +7.6699619e+01 </wgt>
<wgt id='1331'> +7.7347031e+01 </wgt>
<wgt id='1332'> +7.4912936e+01 </wgt>
<wgt id='1333'> +7.4771871e+01 </wgt>
<wgt id='1334'> +7.6314687e+01 </wgt>
<wgt id='1335'> +7.7058426e+01 </wgt>
<wgt id='1336'> +7.4570518e+01 </wgt>
<wgt id='1337'> +7.6205160e+01 </wgt>
<wgt id='1338'> +7.5549517e+01 </wgt>
<wgt id='1339'> +7.6725506e+01 </wgt>
<wgt id='1340'> +7.4988671e+01 </wgt>
<wgt id='1341'> +7.6195970e+01 </wgt>
<wgt id='1342'> +7.5260873e+01 </wgt>
<wgt id='1343'> +7.6301495e+01 </wgt>
<wgt id='1344'> +7.5413613e+01 </wgt>
<wgt id='1345'> +7.6140710e+01 </wgt>
<wgt id='1346'> +7.5613152e+01 </wgt>
<wgt id='1347'> +7.5805719e+01 </wgt>
<wgt id='1348'> +7.6020115e+01 </wgt>
<wgt id='1349'> +7.5425941e+01 </wgt>
<wgt id='1350'> +7.6063099e+01 </wgt>
<wgt id='1351'> +7.5723392e+01 </wgt>
<wgt id='1352'> +7.6107860e+01 </wgt>
<wgt id='1353'> +7.5702479e+01 </wgt>
<wgt id='1354'> +7.6311105e+01 </wgt>
<wgt id='1355'> +7.5579731e+01 </wgt>
<wgt id='1356'> +7.6300713e+01 </wgt>
<wgt id='1357'> +7.6279399e+01 </wgt>
<wgt id='1358'> +7.5161581e+01 </wgt>
<wgt id='1359'> +7.5478808e+01 </wgt>
<wgt id='1360'> +7.6001539e+01 </wgt>
<wgt id='1361'> +7.6217850e+01 </wgt>
<wgt id='1362'> +7.5667628e+01 </wgt>
<wgt id='1363'> +7.6373795e+01 </wgt>
<wgt id='1364'> +7.5700571e+01 </wgt>
<wgt id='1365'> +7.5017582e+01 </wgt>
<wgt id='1366'> +7.5520812e+01 </wgt>
<wgt id='1367'> +7.5422240e+01 </wgt>
<wgt id='1368'> +7.4881197e+01 </wgt>
<wgt id='1369'> +7.5090504e+01 </wgt>
<wgt id='1370'> +7.4592692e+01 </wgt>
<wgt id='1371'> +7.5173043e+01 </wgt>
<wgt id='1372'> +7.5707171e+01 </wgt>
<wgt id='1373'> +7.5013193e+01 </wgt>
<wgt id='1374'> +7.6281127e+01 </wgt>
<wgt id='1375'> +7.4841064e+01 </wgt>
<wgt id='1376'> +7.7655096e+01 </wgt>
<wgt id='1377'> +7.4248015e+01 </wgt>
<wgt id='1378'> +7.7473613e+01 </wgt>
<wgt id='1379'> +7.6786586e+01 </wgt>
<wgt id='1380'> +7.5117854e+01 </wgt>
<wgt id='1381'> +7.8397219e+01 </wgt>
<wgt id='1382'> +6.7932605e+01 </wgt>
<wgt id='1383'> +7.6470042e+01 </wgt>
<wgt id='1384'> +7.6764380e+01 </wgt>
<wgt id='1385'> +7.9317602e+01 </wgt>
<wgt id='1386'> +7.9557914e+01 </wgt>
<wgt id='1387'> +7.9049692e+01 </wgt>
<wgt id='1388'> +7.9285406e+01 </wgt>
<wgt id='1389'> +7.9368656e+01 </wgt>
<wgt id='1390'> +7.9372823e+01 </wgt>
<wgt id='1391'> +7.9252110e+01 </wgt>
<wgt id='1392'> +7.8940254e+01 </wgt>
<wgt id='1393'> +7.9580721e+01 </wgt>
<wgt id='1394'> +7.9416350e+01 </wgt>
<wgt id='1395'> +7.9194220e+01 </wgt>
<wgt id='1396'> +7.9039079e+01 </wgt>
<wgt id='1397'> +7.9460128e+01 </wgt>
<wgt id='1398'> +7.9485725e+01 </wgt>
<wgt id='1399'> +7.9189741e+01 </wgt>
<wgt id='1400'> +7.9382285e+01 </wgt>
<wgt id='1401'> +7.9265312e+01 </wgt>
<wgt id='1402'> +7.9498128e+01 </wgt>
<wgt id='1403'> +7.9234878e+01 </wgt>
<wgt id='1404'> +7.8992345e+01 </wgt>
<wgt id='1405'> +7.9468410e+01 </wgt>
<wgt id='1406'> +7.8943345e+01 </wgt>
<wgt id='1407'> +7.9991630e+01 </wgt>
<wgt id='1408'> +7.9289789e+01 </wgt>
<wgt id='1409'> +7.9372139e+01 </wgt>
<wgt id='1410'> +7.9334496e+01 </wgt>
<wgt id='1411'> +7.9252648e+01 </wgt>
<wgt id='1412'> +7.9640862e+01 </wgt>
<wgt id='1413'> +7.8967373e+01 </wgt>
<wgt id='1414'> +7.9964233e+01 </wgt>
<wgt id='1415'> +7.8892787e+01 </wgt>
<wgt id='1416'> +7.9601328e+01 </wgt>
<wgt id='1417'> +7.9194107e+01 </wgt>
<wgt id='1418'> +7.9232378e+01 </wgt>
<wgt id='1419'> +7.9524143e+01 </wgt>
<wgt id='1420'> +7.8947506e+01 </wgt>
<wgt id='1421'> +7.9396113e+01 </wgt>
<wgt id='1422'> +7.9472961e+01 </wgt>
<wgt id='1423'> +7.9169193e+01 </wgt>
<wgt id='1424'> +7.9913690e+01 </wgt>
<wgt id='1425'> +7.8355040e+01 </wgt>
<wgt id='1426'> +7.9668972e+01 </wgt>
<wgt id='1427'> +7.9361132e+01 </wgt>
<wgt id='1428'> +7.9269592e+01 </wgt>
<wgt id='1429'> +7.9163294e+01 </wgt>
<wgt id='1430'> +7.9487455e+01 </wgt>
<wgt id='1431'> +7.9631118e+01 </wgt>
<wgt id='1432'> +7.9530660e+01 </wgt>
<wgt id='1433'> +7.9665376e+01 </wgt>
<wgt id='1434'> +7.9228588e+01 </wgt>
<wgt id='1435'> +7.9553996e+01 </wgt>
<wgt id='1436'> +7.4155822e+01 </wgt>
<wgt id='1437'> +7.4184329e+01 </wgt>
<wgt id='1438'> +7.4043301e+01 </wgt>
<wgt id='1439'> +7.4155010e+01 </wgt>
<wgt id='1440'> +7.4227140e+01 </wgt>
<wgt id='1441'> +7.4312678e+01 </wgt>
<wgt id='1442'> +7.4106532e+01 </wgt>
<wgt id='1443'> +7.4168992e+01 </wgt>
<wgt id='1444'> +7.3799384e+01 </wgt>
<wgt id='1445'> +7.3908211e+01 </wgt>
<wgt id='1446'> +7.4245969e+01 </wgt>
<wgt id='1447'> +7.4182543e+01 </wgt>
<wgt id='1448'> +7.4008098e+01 </wgt>
<wgt id='1449'> +7.4079957e+01 </wgt>
<wgt id='1450'> +7.4155957e+01 </wgt>
<wgt id='1451'> +7.4138865e+01 </wgt>
<wgt id='1452'> +7.3952902e+01 </wgt>
<wgt id='1453'> +7.4246925e+01 </wgt>
<wgt id='1454'> +7.4295047e+01 </wgt>
<wgt id='1455'> +7.3953779e+01 </wgt>
<wgt id='1456'> +7.4125865e+01 </wgt>
<wgt id='1457'> +7.4315478e+01 </wgt>
<wgt id='1458'> +7.4251954e+01 </wgt>
<wgt id='1459'> +7.4496320e+01 </wgt>
<wgt id='1460'> +7.4297784e+01 </wgt>
<wgt id='1461'> +7.4497171e+01 </wgt>
<wgt id='1462'> +7.4151290e+01 </wgt>
<wgt id='1463'> +7.4138594e+01 </wgt>
<wgt id='1464'> +7.4266810e+01 </wgt>
<wgt id='1465'> +7.7365436e+01 </wgt>
<wgt id='1466'> +7.6054491e+01 </wgt>
<wgt id='1467'> +7.5930802e+01 </wgt>
<wgt id='1468'> +7.6368835e+01 </wgt>
<wgt id='1469'> +7.6680128e+01 </wgt>
<wgt id='1470'> +7.5839535e+01 </wgt>
<wgt id='1471'> +7.5797259e+01 </wgt>
<wgt id='1472'> +7.5940261e+01 </wgt>
<wgt id='1473'> +7.5991854e+01 </wgt>
<wgt id='1474'> +7.6276237e+01 </wgt>
<wgt id='1475'> +7.5918854e+01 </wgt>
<wgt id='1476'> +7.6300778e+01 </wgt>
<wgt id='1477'> +7.6017256e+01 </wgt>
<wgt id='1478'> +7.5560332e+01 </wgt>
<wgt id='1479'> +7.6330621e+01 </wgt>
<wgt id='1480'> +7.5598894e+01 </wgt>
<wgt id='1481'> +7.6102520e+01 </wgt>
<wgt id='1482'> +7.6034141e+01 </wgt>
<wgt id='1483'> +7.5939990e+01 </wgt>
<wgt id='1484'> +7.6206037e+01 </wgt>
<wgt id='1485'> +7.5775175e+01 </wgt>
<wgt id='1486'> +7.6168992e+01 </wgt>
<wgt id='1487'> +7.5540732e+01 </wgt>
<wgt id='1488'> +7.5866656e+01 </wgt>
<wgt id='1489'> +7.6183302e+01 </wgt>
<wgt id='1490'> +7.6025518e+01 </wgt>
<wgt id='1491'> +7.5815730e+01 </wgt>
<wgt id='1492'> +7.5844226e+01 </wgt>
<wgt id='1493'> +7.6062453e+01 </wgt>
<wgt id='1494'> +7.5808109e+01 </wgt>
<wgt id='1495'> +7.5933760e+01 </wgt>
<wgt id='1496'> +7.5846670e+01 </wgt>
<wgt id='1497'> +7.6164993e+01 </wgt>
<wgt id='1498'> +7.5874101e+01 </wgt>
<wgt id='1499'> +7.5535893e+01 </wgt>
<wgt id='1500'> +7.6249819e+01 </wgt>
<wgt id='1501'> +7.6141085e+01 </wgt>
<wgt id='1502'> +7.6027277e+01 </wgt>
<wgt id='1503'> +7.6027602e+01 </wgt>
<wgt id='1504'> +7.6117738e+01 </wgt>
<wgt id='1505'> +7.6240817e+01 </wgt>
<wgt id='1506'> +7.6042233e+01 </wgt>
<wgt id='1507'> +7.6137921e+01 </wgt>
<wgt id='1508'> +7.6117225e+01 </wgt>
<wgt id='1509'> +7.5995605e+01 </wgt>
<wgt id='1510'> +7.6068480e+01 </wgt>
<wgt id='1511'> +7.6153997e+01 </wgt>
<wgt id='1512'> +7.6149820e+01 </wgt>
<wgt id='1513'> +7.5855405e+01 </wgt>
<wgt id='1514'> +7.6019086e+01 </wgt>
<wgt id='1515'> +7.6005868e+01 </wgt>
<wgt id='1516'> +7.6092476e+01 </wgt>
<wgt id='1517'> +7.5944209e+01 </wgt>
<wgt id='1518'> +7.6180589e+01 </wgt>
<wgt id='1519'> +7.6030765e+01 </wgt>
<wgt id='1520'> +7.6032920e+01 </wgt>
<wgt id='1521'> +7.6147461e+01 </wgt>
<wgt id='1522'> +7.6009455e+01 </wgt>
<wgt id='1523'> +7.6054609e+01 </wgt>
<wgt id='1524'> +7.6118412e+01 </wgt>
<wgt id='1525'> +7.6094343e+01 </wgt>
<wgt id='1526'> +7.5985066e+01 </wgt>
<wgt id='1527'> +7.6094224e+01 </wgt>
<wgt id='1528'> +7.6024244e+01 </wgt>
<wgt id='1529'> +7.6052685e+01 </wgt>
<wgt id='1530'> +7.6082727e+01 </wgt>
<wgt id='1531'> +7.6077240e+01 </wgt>
<wgt id='1532'> +7.6105313e+01 </wgt>
<wgt id='1533'> +7.6110102e+01 </wgt>
<wgt id='1534'> +7.6080480e+01 </wgt>
<wgt id='1535'> +7.6064013e+01 </wgt>
<wgt id='1536'> +7.6014732e+01 </wgt>
<wgt id='1537'> +7.6012132e+01 </wgt>
<wgt id='1538'> +7.6077695e+01 </wgt>
<wgt id='1539'> +7.6050691e+01 </wgt>
<wgt id='1540'> +7.6037079e+01 </wgt>
<wgt id='1541'> +7.6072879e+01 </wgt>
<wgt id='1542'> +7.6065134e+01 </wgt>
<wgt id='1543'> +7.6050360e+01 </wgt>
<wgt id='1544'> +7.6040473e+01 </wgt>
<wgt id='1545'> +7.6070150e+01 </wgt>
<wgt id='1546'> +7.6043078e+01 </wgt>
<wgt id='1547'> +7.6072874e+01 </wgt>
<wgt id='1548'> +7.6036001e+01 </wgt>
<wgt id='1549'> +7.6092276e+01 </wgt>
<wgt id='1550'> +7.6063024e+01 </wgt>
<wgt id='1551'> +7.6056293e+01 </wgt>
<wgt id='1552'> +7.6091640e+01 </wgt>
<wgt id='1553'> +7.6077413e+01 </wgt>
<wgt id='1554'> +7.6053649e+01 </wgt>
<wgt id='1555'> +7.6063576e+01 </wgt>
<wgt id='1556'> +7.6043628e+01 </wgt>
<wgt id='1557'> +7.6029300e+01 </wgt>
<wgt id='1558'> +7.6042633e+01 </wgt>
<wgt id='1559'> +7.6038044e+01 </wgt>
<wgt id='1560'> +7.6054143e+01 </wgt>
<wgt id='1561'> +7.6049168e+01 </wgt>
<wgt id='1562'> +7.6027614e+01 </wgt>
<wgt id='1563'> +7.6076013e+01 </wgt>
<wgt id='1564'> +7.6055945e+01 </wgt>
<wgt id='1565'> +7.6054409e+01 </wgt>
<wgt id='1566'> +7.6056931e+01 </wgt>
<wgt id='1567'> +7.4931795e+01 </wgt>
<wgt id='1568'> +7.7143816e+01 </wgt>
<wgt id='1569'> +7.6445463e+01 </wgt>
<wgt id='1570'> +7.6766240e+01 </wgt>
<wgt id='1571'> +7.6393690e+01 </wgt>
<wgt id='1572'> +7.6421457e+01 </wgt>
<wgt id='1573'> +7.6739615e+01 </wgt>
<wgt id='1574'> +7.7031605e+01 </wgt>
<wgt id='1575'> +7.6337998e+01 </wgt>
<wgt id='1576'> +7.5958159e+01 </wgt>
<wgt id='1577'> +7.6375162e+01 </wgt>
<wgt id='1578'> +7.6511802e+01 </wgt>
<wgt id='1579'> +7.6453819e+01 </wgt>
<wgt id='1580'> +7.6760288e+01 </wgt>
<wgt id='1581'> +7.6288066e+01 </wgt>
<wgt id='1582'> +7.5981582e+01 </wgt>
<wgt id='1583'> +7.5990427e+01 </wgt>
<wgt id='1584'> +7.6475019e+01 </wgt>
<wgt id='1585'> +7.6744458e+01 </wgt>
<wgt id='1586'> +7.6344831e+01 </wgt>
<wgt id='1587'> +7.6610888e+01 </wgt>
<wgt id='1588'> +7.5812697e+01 </wgt>
<wgt id='1589'> +7.6745637e+01 </wgt>
<wgt id='1590'> +7.6414202e+01 </wgt>
<wgt id='1591'> +7.6376759e+01 </wgt>
<wgt id='1592'> +7.6310968e+01 </wgt>
<wgt id='1593'> +7.6602339e+01 </wgt>
<wgt id='1594'> +7.6650738e+01 </wgt>
<wgt id='1595'> +7.6352953e+01 </wgt>
<wgt id='1596'> +7.6278004e+01 </wgt>
<wgt id='1597'> +7.6517772e+01 </wgt>
<wgt id='1598'> +7.6742458e+01 </wgt>
<wgt id='1599'> +7.6603112e+01 </wgt>
<wgt id='1600'> +7.6552779e+01 </wgt>
<wgt id='1601'> +7.6656158e+01 </wgt>
<wgt id='1602'> +7.6976180e+01 </wgt>
<wgt id='1603'> +7.6568060e+01 </wgt>
<wgt id='1604'> +7.6647984e+01 </wgt>
<wgt id='1605'> +7.6476382e+01 </wgt>
<wgt id='1606'> +7.6327146e+01 </wgt>
<wgt id='1607'> +7.6305648e+01 </wgt>
<wgt id='1608'> +7.6615011e+01 </wgt>
<wgt id='1609'> +7.6389218e+01 </wgt>
<wgt id='1610'> +7.6530907e+01 </wgt>
<wgt id='1611'> +7.6372160e+01 </wgt>
<wgt id='1612'> +7.6450328e+01 </wgt>
<wgt id='1613'> +7.6293109e+01 </wgt>
<wgt id='1614'> +7.6466791e+01 </wgt>
<wgt id='1615'> +7.6204069e+01 </wgt>
<wgt id='1616'> +7.6284491e+01 </wgt>
<wgt id='1617'> +7.6433136e+01 </wgt>
<wgt id='1618'> +7.6407308e+01 </wgt>
<wgt id='1619'> +7.6484550e+01 </wgt>
<wgt id='1620'> +7.6405404e+01 </wgt>
<wgt id='1621'> +7.6430481e+01 </wgt>
<wgt id='1622'> +7.6468801e+01 </wgt>
<wgt id='1623'> +7.6346978e+01 </wgt>
<wgt id='1624'> +7.6496441e+01 </wgt>
<wgt id='1625'> +7.6520987e+01 </wgt>
<wgt id='1626'> +7.6477157e+01 </wgt>
<wgt id='1627'> +7.6413777e+01 </wgt>
<wgt id='1628'> +7.6426578e+01 </wgt>
<wgt id='1629'> +7.6476837e+01 </wgt>
<wgt id='1630'> +7.6468775e+01 </wgt>
<wgt id='1631'> +7.6430349e+01 </wgt>
<wgt id='1632'> +7.6464174e+01 </wgt>
<wgt id='1633'> +7.6474072e+01 </wgt>
<wgt id='1634'> +7.6363377e+01 </wgt>
<wgt id='1635'> +7.6413701e+01 </wgt>
<wgt id='1636'> +7.6448095e+01 </wgt>
<wgt id='1637'> +7.6493737e+01 </wgt>
<wgt id='1638'> +7.6463724e+01 </wgt>
<wgt id='1639'> +7.6431108e+01 </wgt>
<wgt id='1640'> +7.6478569e+01 </wgt>
<wgt id='1641'> +7.6472240e+01 </wgt>
<wgt id='1642'> +7.6410252e+01 </wgt>
<wgt id='1643'> +7.6441196e+01 </wgt>
<wgt id='1644'> +7.6458967e+01 </wgt>
<wgt id='1645'> +7.6473105e+01 </wgt>
<wgt id='1646'> +7.6426233e+01 </wgt>
<wgt id='1647'> +7.6445970e+01 </wgt>
<wgt id='1648'> +7.6453313e+01 </wgt>
<wgt id='1649'> +7.6514861e+01 </wgt>
<wgt id='1650'> +7.6456990e+01 </wgt>
<wgt id='1651'> +7.6469775e+01 </wgt>
<wgt id='1652'> +7.6420560e+01 </wgt>
<wgt id='1653'> +7.6413193e+01 </wgt>
<wgt id='1654'> +7.6426607e+01 </wgt>
<wgt id='1655'> +7.6466225e+01 </wgt>
<wgt id='1656'> +7.6392325e+01 </wgt>
<wgt id='1657'> +7.6412123e+01 </wgt>
<wgt id='1658'> +7.6427152e+01 </wgt>
<wgt id='1659'> +7.6447870e+01 </wgt>
<wgt id='1660'> +7.6455405e+01 </wgt>
<wgt id='1661'> +7.6431140e+01 </wgt>
<wgt id='1662'> +7.6454996e+01 </wgt>
<wgt id='1663'> +7.6418470e+01 </wgt>
<wgt id='1664'> +7.6428201e+01 </wgt>
<wgt id='1665'> +7.6442619e+01 </wgt>
<wgt id='1666'> +7.6462845e+01 </wgt>
<wgt id='1667'> +7.6462859e+01 </wgt>
<wgt id='1668'> +7.6432366e+01 </wgt>
<wgt id='1669'> +7.6432687e+01 </wgt>
<wgt id='1670'> +7.5212231e+01 </wgt>
<wgt id='1671'> +7.7440985e+01 </wgt>
<wgt id='1672'> +7.6051142e+01 </wgt>
<wgt id='1673'> +7.6320888e+01 </wgt>
<wgt id='1674'> +7.5656920e+01 </wgt>
<wgt id='1675'> +7.6060814e+01 </wgt>
<wgt id='1676'> +7.6829660e+01 </wgt>
<wgt id='1677'> +7.7039055e+01 </wgt>
<wgt id='1678'> +7.5882575e+01 </wgt>
<wgt id='1679'> +7.6033036e+01 </wgt>
<wgt id='1680'> +7.6126468e+01 </wgt>
<wgt id='1681'> +7.5928697e+01 </wgt>
<wgt id='1682'> +7.6164409e+01 </wgt>
<wgt id='1683'> +7.5826160e+01 </wgt>
<wgt id='1684'> +7.6090740e+01 </wgt>
<wgt id='1685'> +7.6098724e+01 </wgt>
<wgt id='1686'> +7.5948390e+01 </wgt>
<wgt id='1687'> +7.6023323e+01 </wgt>
<wgt id='1688'> +7.5905351e+01 </wgt>
<wgt id='1689'> +7.6388134e+01 </wgt>
<wgt id='1690'> +7.6094268e+01 </wgt>
<wgt id='1691'> +7.5996080e+01 </wgt>
<wgt id='1692'> +7.5977309e+01 </wgt>
<wgt id='1693'> +7.6007519e+01 </wgt>
<wgt id='1694'> +7.6002086e+01 </wgt>
<wgt id='1695'> +7.6071370e+01 </wgt>
<wgt id='1696'> +7.5997472e+01 </wgt>
<wgt id='1697'> +7.6000025e+01 </wgt>
<wgt id='1698'> +7.6191671e+01 </wgt>
<wgt id='1699'> +7.6154464e+01 </wgt>
<wgt id='1700'> +7.6500602e+01 </wgt>
<wgt id='1701'> +7.6057404e+01 </wgt>
<wgt id='1702'> +7.6050176e+01 </wgt>
<wgt id='1703'> +7.4931795e+01 </wgt>
<wgt id='1704'> +7.7143816e+01 </wgt>
<wgt id='1705'> +7.6441414e+01 </wgt>
<wgt id='1706'> +7.6197392e+01 </wgt>
<wgt id='1707'> +7.6743796e+01 </wgt>
<wgt id='1708'> +7.6438883e+01 </wgt>
<wgt id='1709'> +7.5876670e+01 </wgt>
<wgt id='1710'> +7.6027697e+01 </wgt>
<wgt id='1711'> +7.6548381e+01 </wgt>
<wgt id='1712'> +7.6327484e+01 </wgt>
<wgt id='1713'> +7.6608752e+01 </wgt>
<wgt id='1714'> +7.6118094e+01 </wgt>
<wgt id='1715'> +7.6057393e+01 </wgt>
<wgt id='1716'> +7.6075584e+01 </wgt>
<wgt id='1717'> +7.6445414e+01 </wgt>
<wgt id='1718'> +7.6546413e+01 </wgt>
<wgt id='1719'> +7.6301820e+01 </wgt>
<wgt id='1720'> +7.6616016e+01 </wgt>
<wgt id='1721'> +7.6420762e+01 </wgt>
<wgt id='1722'> +7.6658406e+01 </wgt>
<wgt id='1723'> +7.6429771e+01 </wgt>
<wgt id='1724'> +7.6559516e+01 </wgt>
<wgt id='1725'> +7.5734742e+01 </wgt>
<wgt id='1726'> +7.6504706e+01 </wgt>
<wgt id='1727'> +7.7313733e+01 </wgt>
<wgt id='1728'> +7.6494433e+01 </wgt>
<wgt id='1729'> +7.6430951e+01 </wgt>
<wgt id='1730'> +7.6474573e+01 </wgt>
<wgt id='1731'> +7.6371259e+01 </wgt>
<wgt id='1732'> +7.6447147e+01 </wgt>
<wgt id='1733'> +7.6424754e+01 </wgt>
<wgt id='1734'> +7.6378485e+01 </wgt>
<wgt id='1735'> +7.6564791e+01 </wgt>
<wgt id='1736'> +7.5212231e+01 </wgt>
<wgt id='1737'> +7.7440985e+01 </wgt>
<wgt id='1738'> +8.2015707e+01 </wgt>
<wgt id='1739'> +8.2037802e+01 </wgt>
<wgt id='1740'> +8.1993626e+01 </wgt>
<wgt id='1741'> +8.1990363e+01 </wgt>
<wgt id='1742'> +8.2040767e+01 </wgt>
<wgt id='1743'> +8.2189983e+01 </wgt>
<wgt id='1744'> +8.1841554e+01 </wgt>
<wgt id='1745'> +8.2069050e+01 </wgt>
<wgt id='1746'> +8.1961272e+01 </wgt>
<wgt id='1747'> +8.2097660e+01 </wgt>
<wgt id='1748'> +8.1933233e+01 </wgt>
<wgt id='1749'> +8.1900126e+01 </wgt>
<wgt id='1750'> +8.2164933e+01 </wgt>
<wgt id='1751'> +8.1807493e+01 </wgt>
<wgt id='1752'> +8.2224287e+01 </wgt>
<wgt id='1753'> +8.1919260e+01 </wgt>
<wgt id='1754'> +8.1987871e+01 </wgt>
<wgt id='1755'> +8.2206502e+01 </wgt>
<wgt id='1756'> +8.1897861e+01 </wgt>
<wgt id='1757'> +8.1828418e+01 </wgt>
<wgt id='1758'> +8.2157241e+01 </wgt>
<wgt id='1759'> +8.2377221e+01 </wgt>
<wgt id='1760'> +8.1621092e+01 </wgt>
<wgt id='1761'> +8.1599283e+01 </wgt>
<wgt id='1762'> +8.2206953e+01 </wgt>
<wgt id='1763'> +8.2088945e+01 </wgt>
<wgt id='1764'> +8.2021602e+01 </wgt>
<wgt id='1765'> +8.2010852e+01 </wgt>
<wgt id='1766'> +8.1985211e+01 </wgt>
<wgt id='1767'> +8.2015707e+01 </wgt>
<wgt id='1768'> +8.2593312e+01 </wgt>
<wgt id='1769'> +8.1288096e+01 </wgt>
<wgt id='1770'> +8.2668306e+01 </wgt>
<wgt id='1771'> +8.1516135e+01 </wgt>
<wgt id='1772'> +8.2249902e+01 </wgt>
<wgt id='1773'> +8.1697219e+01 </wgt>
<wgt id='1774'> +8.1845761e+01 </wgt>
<wgt id='1775'> +8.2197145e+01 </wgt>
<wgt id='1776'> +8.1797224e+01 </wgt>
<wgt id='1777'> +8.2245135e+01 </wgt>
<wgt id='1778'> +8.2040630e+01 </wgt>
<wgt id='1779'> +8.2187084e+01 </wgt>
<wgt id='1780'> +7.9895118e+01 </wgt>
<wgt id='1781'> +7.9748101e+01 </wgt>
<wgt id='1782'> +7.9778693e+01 </wgt>
<wgt id='1783'> +7.9721226e+01 </wgt>
<wgt id='1784'> +7.9659172e+01 </wgt>
<wgt id='1785'> +7.9840906e+01 </wgt>
<wgt id='1786'> +7.9888338e+01 </wgt>
<wgt id='1787'> +7.9611416e+01 </wgt>
<wgt id='1788'> +7.9820798e+01 </wgt>
<wgt id='1789'> +7.9678704e+01 </wgt>
<wgt id='1790'> +7.9683481e+01 </wgt>
<wgt id='1791'> +7.9820199e+01 </wgt>
<wgt id='1792'> +7.9852043e+01 </wgt>
<wgt id='1793'> +7.9648338e+01 </wgt>
<wgt id='1794'> +7.9592321e+01 </wgt>
<wgt id='1795'> +7.9901417e+01 </wgt>
<wgt id='1796'> +7.9613705e+01 </wgt>
<wgt id='1797'> +7.9737418e+01 </wgt>
<wgt id='1798'> +7.9714856e+01 </wgt>
<wgt id='1799'> +7.9779895e+01 </wgt>
<wgt id='1800'> +7.9709499e+01 </wgt>
<wgt id='1801'> +7.9794025e+01 </wgt>
<wgt id='1802'> +7.9276602e+01 </wgt>
<wgt id='1803'> +8.0181400e+01 </wgt>
<wgt id='1804'> +7.9527535e+01 </wgt>
<wgt id='1805'> +8.0001706e+01 </wgt>
<wgt id='1806'> +7.9240665e+01 </wgt>
<wgt id='1807'> +8.0162000e+01 </wgt>
<wgt id='1808'> +7.9487383e+01 </wgt>
<wgt id='1809'> +7.9982445e+01 </wgt>
<wgt id='1810'> +7.9740458e+01 </wgt>
<wgt id='1811'> +8.0346874e+01 </wgt>
<wgt id='1812'> +7.8765455e+01 </wgt>
<wgt id='1813'> +8.0416704e+01 </wgt>
<wgt id='1814'> +7.9246214e+01 </wgt>
<wgt id='1815'> +7.9146199e+01 </wgt>
<wgt id='1816'> +7.9359272e+01 </wgt>
<wgt id='1817'> +7.9595275e+01 </wgt>
<wgt id='1818'> +8.0069424e+01 </wgt>
<wgt id='1819'> +7.9208565e+01 </wgt>
<wgt id='1820'> +7.9325031e+01 </wgt>
<wgt id='1821'> +7.9263195e+01 </wgt>
<wgt id='1822'> +8.0700452e+01 </wgt>
<wgt id='1823'> +7.9077168e+01 </wgt>
<wgt id='1824'> +7.5580878e+01 </wgt>
<wgt id='1825'> +7.5564404e+01 </wgt>
<wgt id='1826'> +7.5547783e+01 </wgt>
<wgt id='1827'> +7.5531351e+01 </wgt>
<wgt id='1828'> +7.5514717e+01 </wgt>
<wgt id='1829'> +7.5498235e+01 </wgt>
<wgt id='1830'> +7.5481537e+01 </wgt>
<wgt id='1831'> +7.5465111e+01 </wgt>
<wgt id='1832'> +7.5448495e+01 </wgt>
<wgt id='1833'> +7.5432085e+01 </wgt>
<wgt id='1834'> +7.5415470e+01 </wgt>
<wgt id='1835'> +7.5399102e+01 </wgt>
<wgt id='1836'> +7.5382464e+01 </wgt>
<wgt id='1837'> +7.5366012e+01 </wgt>
<wgt id='1838'> +7.5349511e+01 </wgt>
<wgt id='1839'> +7.5332917e+01 </wgt>
<wgt id='1840'> +7.5316313e+01 </wgt>
<wgt id='1841'> +7.5299898e+01 </wgt>
<wgt id='1842'> +7.5283309e+01 </wgt>
<wgt id='1843'> +7.5266843e+01 </wgt>
<wgt id='1844'> +7.5250326e+01 </wgt>
<wgt id='1845'> +7.5233958e+01 </wgt>
<wgt id='1846'> +7.5217445e+01 </wgt>
<wgt id='1847'> +7.5200941e+01 </wgt>
<wgt id='1848'> +7.5184448e+01 </wgt>
<wgt id='1849'> +7.5167807e+01 </wgt>
<wgt id='1850'> +7.5151339e+01 </wgt>
<wgt id='1851'> +7.5134794e+01 </wgt>
<wgt id='1852'> +7.5118455e+01 </wgt>
<wgt id='1853'> +7.5101897e+01 </wgt>
<wgt id='1854'> +7.5085407e+01 </wgt>
<wgt id='1855'> +7.5919452e+01 </wgt>
<wgt id='1856'> +7.6228941e+01 </wgt>
<wgt id='1857'> +7.5865133e+01 </wgt>
<wgt id='1858'> +7.5896769e+01 </wgt>
<wgt id='1859'> +7.6209695e+01 </wgt>
<wgt id='1860'> +7.6501552e+01 </wgt>
<wgt id='1861'> +7.5819523e+01 </wgt>
<wgt id='1862'> +7.5442661e+01 </wgt>
<wgt id='1863'> +7.5849700e+01 </wgt>
<wgt id='1864'> +7.5986669e+01 </wgt>
<wgt id='1865'> +7.5925027e+01 </wgt>
<wgt id='1866'> +7.6241723e+01 </wgt>
<wgt id='1867'> +7.5766434e+01 </wgt>
<wgt id='1868'> +7.5462559e+01 </wgt>
<wgt id='1869'> +7.5465847e+01 </wgt>
<wgt id='1870'> +7.5934214e+01 </wgt>
<wgt id='1871'> +7.6225410e+01 </wgt>
<wgt id='1872'> +7.5816276e+01 </wgt>
<wgt id='1873'> +7.6081570e+01 </wgt>
<wgt id='1874'> +7.5297196e+01 </wgt>
<wgt id='1875'> +7.6224899e+01 </wgt>
<wgt id='1876'> +7.5882449e+01 </wgt>
<wgt id='1877'> +7.5849816e+01 </wgt>
<wgt id='1878'> +7.5787099e+01 </wgt>
<wgt id='1879'> +7.6069777e+01 </wgt>
<wgt id='1880'> +7.6118090e+01 </wgt>
<wgt id='1881'> +7.5821087e+01 </wgt>
<wgt id='1882'> +7.5759115e+01 </wgt>
<wgt id='1883'> +7.5994865e+01 </wgt>
<wgt id='1884'> +7.6211128e+01 </wgt>
<wgt id='1885'> +7.6071884e+01 </wgt>
<wgt id='1886'> +7.6034090e+01 </wgt>
<wgt id='1887'> +7.6126556e+01 </wgt>
<wgt id='1888'> +7.6444649e+01 </wgt>
<wgt id='1889'> +7.6040824e+01 </wgt>
<wgt id='1890'> +7.6118201e+01 </wgt>
<wgt id='1891'> +7.5949988e+01 </wgt>
<wgt id='1892'> +7.5801446e+01 </wgt>
<wgt id='1893'> +7.5780004e+01 </wgt>
<wgt id='1894'> +7.6084641e+01 </wgt>
<wgt id='1895'> +7.5864212e+01 </wgt>
<wgt id='1896'> +7.6003069e+01 </wgt>
<wgt id='1897'> +7.5847167e+01 </wgt>
<wgt id='1898'> +7.5927141e+01 </wgt>
<wgt id='1899'> +7.5766862e+01 </wgt>
<wgt id='1900'> +7.5938689e+01 </wgt>
<wgt id='1901'> +7.5682027e+01 </wgt>
<wgt id='1902'> +7.5758443e+01 </wgt>
<wgt id='1903'> +7.5908427e+01 </wgt>
<wgt id='1904'> +7.5882236e+01 </wgt>
<wgt id='1905'> +7.5959200e+01 </wgt>
<wgt id='1906'> +7.5878588e+01 </wgt>
<wgt id='1907'> +7.5902780e+01 </wgt>
<wgt id='1908'> +7.5943494e+01 </wgt>
<wgt id='1909'> +7.5823166e+01 </wgt>
<wgt id='1910'> +7.5970944e+01 </wgt>
<wgt id='1911'> +7.5992709e+01 </wgt>
<wgt id='1912'> +7.5949985e+01 </wgt>
<wgt id='1913'> +7.5890567e+01 </wgt>
<wgt id='1914'> +7.5901142e+01 </wgt>
<wgt id='1915'> +7.5950080e+01 </wgt>
<wgt id='1916'> +7.5943051e+01 </wgt>
<wgt id='1917'> +7.5905467e+01 </wgt>
<wgt id='1918'> +7.5936708e+01 </wgt>
<wgt id='1919'> +7.5950218e+01 </wgt>
<wgt id='1920'> +7.5838862e+01 </wgt>
<wgt id='1921'> +7.5887645e+01 </wgt>
<wgt id='1922'> +7.5921245e+01 </wgt>
<wgt id='1923'> +7.5967691e+01 </wgt>
<wgt id='1924'> +7.5935334e+01 </wgt>
<wgt id='1925'> +7.5904369e+01 </wgt>
<wgt id='1926'> +7.5953540e+01 </wgt>
<wgt id='1927'> +7.5944883e+01 </wgt>
<wgt id='1928'> +7.5883367e+01 </wgt>
<wgt id='1929'> +7.5915881e+01 </wgt>
<wgt id='1930'> +7.5933753e+01 </wgt>
<wgt id='1931'> +7.5949086e+01 </wgt>
<wgt id='1932'> +7.5900404e+01 </wgt>
<wgt id='1933'> +7.5920938e+01 </wgt>
<wgt id='1934'> +7.5926590e+01 </wgt>
<wgt id='1935'> +7.5986601e+01 </wgt>
<wgt id='1936'> +7.5931063e+01 </wgt>
<wgt id='1937'> +7.5943978e+01 </wgt>
<wgt id='1938'> +7.5893987e+01 </wgt>
<wgt id='1939'> +7.5886488e+01 </wgt>
<wgt id='1940'> +7.5900906e+01 </wgt>
<wgt id='1941'> +7.5940994e+01 </wgt>
<wgt id='1942'> +7.5866292e+01 </wgt>
<wgt id='1943'> +7.5884850e+01 </wgt>
<wgt id='1944'> +7.5899824e+01 </wgt>
<wgt id='1945'> +7.5920947e+01 </wgt>
<wgt id='1946'> +7.5928816e+01 </wgt>
<wgt id='1947'> +7.5904824e+01 </wgt>
<wgt id='1948'> +7.5928834e+01 </wgt>
<wgt id='1949'> +7.5891326e+01 </wgt>
<wgt id='1950'> +7.5903338e+01 </wgt>
<wgt id='1951'> +7.5917242e+01 </wgt>
<wgt id='1952'> +7.5936479e+01 </wgt>
<wgt id='1953'> +7.5935723e+01 </wgt>
<wgt id='1954'> +7.5907357e+01 </wgt>
<wgt id='1955'> +7.5907959e+01 </wgt>
<wgt id='1956'> +7.5918938e+01 </wgt>
<wgt id='1957'> +7.5922233e+01 </wgt>
<wgt id='1958'> +7.5919986e+01 </wgt>
<wgt id='1959'> +7.5920078e+01 </wgt>
<wgt id='1960'> +7.5921015e+01 </wgt>
<wgt id='1961'> +7.5919679e+01 </wgt>
<wgt id='1962'> +7.5922810e+01 </wgt>
</rwgt>
</event>
<event npLO=" -1 " npNLO=" 1 ">
 7      1 +1.5146096e+02 1.54921380e+01 7.54677110e-03 1.62859270e-01
       21 -1    0    0  501  502 +0.0000000000e+00 +0.0000000000e+00 +1.3222433000e+01 1.3222433000e+01 0.0000000000e+00 0.0000e+00 9.0000e+00
       -2 -1    0    0    0  501 +0.0000000000e+00 +0.0000000000e+00 -5.1624173000e+02 5.1624173000e+02 0.0000000000e+00 0.0000e+00 9.0000e+00
       23  2    1    2    0    0 +3.6023574000e+01 -3.4266708000e+01 -3.5425991000e+02 3.7036785000e+02 9.5918487000e+01 0.0000e+00 0.0000e+00
       13  1    3    3    0    0 +6.1766490000e+01 -2.3491118000e+01 -3.1700529000e+02 3.2381984000e+02 0.0000000000e+00 0.0000e+00 9.0000e+00
      -13  1    3    3    0    0 -2.5742916000e+01 -1.0775590000e+01 -3.7254621000e+01 4.6548017000e+01 0.0000000000e+00 0.0000e+00 9.0000e+00
       22  1    1    2    0    0 -3.2584871000e+01 +1.9161025000e+01 -1.2612449000e+02 1.3166741000e+02 0.0000000000e+00 0.0000e+00 9.0000e+00
       -2  1    1    2    0  502 -3.4387038000e+00 +1.5105683000e+01 -2.2634894000e+01 2.7428904000e+01 0.0000000000e+00 0.0000e+00 9.0000e+00
#aMCatNLO 1  0  0  1  6 0.94919786E+01 0.00000000E+00 -9  7  0 0.00000000E+00 0.00000000E+00 0.00000000E+00 0.00000000E+00 0.00000000E+00
<rwgt>
<wgt id='1001'> +1.5146000e+02 </wgt>
<wgt id='1002'> +1.5146000e+02 </wgt>
<wgt id='1003'> +1.3949000e+02 </wgt>
<wgt id='1004'> +1.4324000e+02 </wgt>
<wgt id='1005'> +1.5470000e+02 </wgt>
<wgt id='1006'> +1.5349000e+02 </wgt>
<wgt id='1007'> +1.5340000e+02 </wgt>
<wgt id='1008'> +1.4780000e+02 </wgt>
<wgt id='1009'> +1.5623000e+02 </wgt>
<wgt id='1010'> +1.5493000e+02 </wgt>
<wgt id='1011'> +1.5503000e+02 </wgt>
<wgt id='1012'> +1.5359000e+02 </wgt>
<wgt id='1013'> +1.4200000e+02 </wgt>
<wgt id='1014'> +1.5058000e+02 </wgt>
<wgt id='1015'> +1.5526000e+02 </wgt>
<wgt id='1016'> +1.4810000e+02 </wgt>
<wgt id='1017'> +1.5206000e+02 </wgt>
<wgt id='1018'> +1.5423000e+02 </wgt>
<wgt id='1019'> +1.5024000e+02 </wgt>
<wgt id='1020'> +1.4913000e+02 </wgt>
<wgt id='1021'> +1.5211000e+02 </wgt>
<wgt id='1022'> +1.6305000e+02 </wgt>
<wgt id='1023'> +1.5178000e+02 </wgt>
<wgt id='1024'> +1.5571000e+02 </wgt>
<wgt id='1025'> +1.5852000e+02 </wgt>
<wgt id='1026'> +1.6161000e+02 </wgt>
<wgt id='1027'> +1.5256000e+02 </wgt>
<wgt id='1028'> +1.5452000e+02 </wgt>
<wgt id='1029'> +1.5375000e+02 </wgt>
<wgt id='1030'> +1.4898000e+02 </wgt>
<wgt id='1031'> +1.5207000e+02 </wgt>
<wgt id='1032'> +1.5825000e+02 </wgt>
<wgt id='1033'> +1.6078000e+02 </wgt>
<wgt id='1034'> +1.5244000e+02 </wgt>
<wgt id='1035'> +1.4997000e+02 </wgt>
<wgt id='1036'> +1.5174000e+02 </wgt>
<wgt id='1037'> +1.5938000e+02 </wgt>
<wgt id='1038'> +1.4963000e+02 </wgt>
<wgt id='1039'> +1.5541000e+02 </wgt>
<wgt id='1040'> +1.5392000e+02 </wgt>
<wgt id='1041'> +1.4910000e+02 </wgt>
<wgt id='1042'> +1.5038000e+02 </wgt>
<wgt id='1043'> +1.4392000e+02 </wgt>
<wgt id='1044'> +1.4959000e+02 </wgt>
<wgt id='1045'> +1.5512000e+02 </wgt>
<wgt id='1046'> +1.4981000e+02 </wgt>
<wgt id='1047'> +1.4700000e+02 </wgt>
<wgt id='1048'> +1.4667000e+02 </wgt>
<wgt id='1049'> +1.4695000e+02 </wgt>
<wgt id='1050'> +1.5460000e+02 </wgt>
<wgt id='1051'> +1.5167000e+02 </wgt>
<wgt id='1052'> +1.4649000e+02 </wgt>
<wgt id='1053'> +1.4793000e+02 </wgt>
<wgt id='1054'> +1.4970000e+02 </wgt>
<wgt id='1055'> +1.5941000e+02 </wgt>
<wgt id='1056'> +1.5233000e+02 </wgt>
<wgt id='1057'> +1.5244000e+02 </wgt>
<wgt id='1058'> +1.4485000e+02 </wgt>
<wgt id='1059'> +1.4597000e+02 </wgt>
<wgt id='1060'> +1.4262000e+02 </wgt>
<wgt id='1061'> +1.5740000e+02 </wgt>
<wgt id='1062'> +1.5303000e+02 </wgt>
<wgt id='1063'> +1.4995000e+02 </wgt>
<wgt id='1064'> +1.4977000e+02 </wgt>
<wgt id='1065'> +1.4673000e+02 </wgt>
<wgt id='1066'> +1.4475000e+02 </wgt>
<wgt id='1067'> +1.5552000e+02 </wgt>
<wgt id='1068'> +1.5601000e+02 </wgt>
<wgt id='1069'> +1.6193000e+02 </wgt>
<wgt id='1070'> +1.5402000e+02 </wgt>
<wgt id='1071'> +1.5814000e+02 </wgt>
<wgt id='1072'> +1.5220000e+02 </wgt>
<wgt id='1073'> +1.4868000e+02 </wgt>
<wgt id='1074'> +1.5034000e+02 </wgt>
<wgt id='1075'> +1.4082000e+02 </wgt>
<wgt id='1076'> +1.5347000e+02 </wgt>
<wgt id='1077'> +1.4600000e+02 </wgt>
<wgt id='1078'> +1.4715000e+02 </wgt>
<wgt id='1079'> +1.5305000e+02 </wgt>
<wgt id='1080'> +1.5244000e+02 </wgt>
<wgt id='1081'> +1.4795000e+02 </wgt>
<wgt id='1082'> +1.5421000e+02 </wgt>
<wgt id='1083'> +1.5097000e+02 </wgt>
<wgt id='1084'> +1.5165000e+02 </wgt>
<wgt id='1085'> +1.5155000e+02 </wgt>
<wgt id='1086'> +1.5377000e+02 </wgt>
<wgt id='1087'> +1.4977000e+02 </wgt>
<wgt id='1088'> +1.4816000e+02 </wgt>
<wgt id='1089'> +1.4513000e+02 </wgt>
<wgt id='1090'> +1.4674000e+02 </wgt>
<wgt id='1091'> +1.4758000e+02 </wgt>
<wgt id='1092'> +1.5608000e+02 </wgt>
<wgt id='1093'> +1.5069000e+02 </wgt>
<wgt id='1094'> +1.5934000e+02 </wgt>
<wgt id='1095'> +1.5045000e+02 </wgt>
<wgt id='1096'> +1.4815000e+02 </wgt>
<wgt id='1097'> +1.4821000e+02 </wgt>
<wgt id='1098'> +1.5529000e+02 </wgt>
<wgt id='1099'> +1.5202000e+02 </wgt>
<wgt id='1100'> +1.5335000e+02 </wgt>
<wgt id='1101'> +1.4628000e+02 </wgt>
<wgt id='1102'> +1.5099000e+02 </wgt>
<wgt id='1103'> +1.4780000e+02 </wgt>
<wgt id='1104'> +1.5419000e+02 </wgt>
<wgt id='1105'> +1.5146096e+02 </wgt>
<wgt id='1106'> +5.7408708e+01 </wgt>
<wgt id='1107'> +1.0468178e+02 </wgt>
<wgt id='1108'> +7.2475026e+01 </wgt>
<wgt id='1109'> +5.4941286e+01 </wgt>
<wgt id='1110'> +1.0018132e+02 </wgt>
<wgt id='1111'> +7.8390939e+01 </wgt>
<wgt id='1112'> +5.9424932e+01 </wgt>
<wgt id='1113'> +1.0836007e+02 </wgt>
<wgt id='1114'> +7.6284869e+01 </wgt>
<wgt id='1115'> +8.6945408e+01 </wgt>
<wgt id='1116'> +7.7028014e+01 </wgt>
<wgt id='1117'> +8.4574816e+01 </wgt>
<wgt id='1118'> +7.9584117e+01 </wgt>
<wgt id='1119'> +7.4451194e+01 </wgt>
<wgt id='1120'> +7.6962591e+01 </wgt>
<wgt id='1121'> +7.2140815e+01 </wgt>
<wgt id='1122'> +7.4701257e+01 </wgt>
<wgt id='1123'> +7.5856057e+01 </wgt>
<wgt id='1124'> +7.5508680e+01 </wgt>
<wgt id='1125'> +7.6866442e+01 </wgt>
<wgt id='1126'> +7.4955788e+01 </wgt>
<wgt id='1127'> +7.3503346e+01 </wgt>
<wgt id='1128'> +7.6678888e+01 </wgt>
<wgt id='1129'> +7.3933782e+01 </wgt>
<wgt id='1130'> +7.2534305e+01 </wgt>
<wgt id='1131'> +7.9055612e+01 </wgt>
<wgt id='1132'> +7.7439271e+01 </wgt>
<wgt id='1133'> +7.4622343e+01 </wgt>
<wgt id='1134'> +6.9603735e+01 </wgt>
<wgt id='1135'> +7.7462036e+01 </wgt>
<wgt id='1136'> +8.0066397e+01 </wgt>
<wgt id='1137'> +7.6230412e+01 </wgt>
<wgt id='1138'> +7.3526678e+01 </wgt>
<wgt id='1139'> +7.2531526e+01 </wgt>
<wgt id='1140'> +7.6124513e+01 </wgt>
<wgt id='1141'> +8.4459343e+01 </wgt>
<wgt id='1142'> +7.7835628e+01 </wgt>
<wgt id='1143'> +7.3967766e+01 </wgt>
<wgt id='1144'> +7.7292007e+01 </wgt>
<wgt id='1145'> +8.1283453e+01 </wgt>
<wgt id='1146'> +7.6037516e+01 </wgt>
<wgt id='1147'> +7.8928980e+01 </wgt>
<wgt id='1148'> +7.7902404e+01 </wgt>
<wgt id='1149'> +7.8463840e+01 </wgt>
<wgt id='1150'> +7.8401150e+01 </wgt>
<wgt id='1151'> +7.7731771e+01 </wgt>
<wgt id='1152'> +7.3579078e+01 </wgt>
<wgt id='1153'> +7.7554581e+01 </wgt>
<wgt id='1154'> +7.3735595e+01 </wgt>
<wgt id='1155'> +7.8659377e+01 </wgt>
<wgt id='1156'> +7.5761783e+01 </wgt>
<wgt id='1157'> +8.2571830e+01 </wgt>
<wgt id='1158'> +7.7829769e+01 </wgt>
<wgt id='1159'> +7.3209992e+01 </wgt>
<wgt id='1160'> +7.7140213e+01 </wgt>
<wgt id='1161'> +7.7172974e+01 </wgt>
<wgt id='1162'> +7.4050568e+01 </wgt>
<wgt id='1163'> +7.6365291e+01 </wgt>
<wgt id='1164'> +7.6726852e+01 </wgt>
<wgt id='1165'> +7.7885114e+01 </wgt>
<wgt id='1166'> +7.2185109e+01 </wgt>
<wgt id='1167'> +7.4878576e+01 </wgt>
<wgt id='1168'> +7.6695789e+01 </wgt>
<wgt id='1169'> +8.1628052e+01 </wgt>
<wgt id='1170'> +7.7934042e+01 </wgt>
<wgt id='1171'> +7.7978329e+01 </wgt>
<wgt id='1172'> +7.7529556e+01 </wgt>
<wgt id='1173'> +7.5430860e+01 </wgt>
<wgt id='1174'> +7.8728060e+01 </wgt>
<wgt id='1175'> +7.7917229e+01 </wgt>
<wgt id='1176'> +7.6374239e+01 </wgt>
<wgt id='1177'> +7.7252581e+01 </wgt>
<wgt id='1178'> +7.0919486e+01 </wgt>
<wgt id='1179'> +7.5993313e+01 </wgt>
<wgt id='1180'> +7.2279184e+01 </wgt>
<wgt id='1181'> +7.6738421e+01 </wgt>
<wgt id='1182'> +7.7725471e+01 </wgt>
<wgt id='1183'> +7.5386745e+01 </wgt>
<wgt id='1184'> +7.6017862e+01 </wgt>
<wgt id='1185'> +7.8149137e+01 </wgt>
<wgt id='1186'> +7.0677441e+01 </wgt>
<wgt id='1187'> +6.6820674e+01 </wgt>
<wgt id='1188'> +7.0394656e+01 </wgt>
<wgt id='1189'> +7.3961546e+01 </wgt>
<wgt id='1190'> +8.0003019e+01 </wgt>
<wgt id='1191'> +7.5081394e+01 </wgt>
<wgt id='1192'> +7.5311545e+01 </wgt>
<wgt id='1193'> +7.3802586e+01 </wgt>
<wgt id='1194'> +8.0412400e+01 </wgt>
<wgt id='1195'> +7.9081062e+01 </wgt>
<wgt id='1196'> +7.2534305e+01 </wgt>
<wgt id='1197'> +7.2881017e+01 </wgt>
<wgt id='1198'> +7.5970817e+01 </wgt>
<wgt id='1199'> +7.7967059e+01 </wgt>
<wgt id='1200'> +8.2206128e+01 </wgt>
<wgt id='1201'> +7.6973930e+01 </wgt>
<wgt id='1202'> +8.0582318e+01 </wgt>
<wgt id='1203'> +6.6368228e+01 </wgt>
<wgt id='1204'> +7.5687272e+01 </wgt>
<wgt id='1205'> +7.5830322e+01 </wgt>
<wgt id='1206'> +6.6424896e+01 </wgt>
<wgt id='1207'> +7.4284571e+01 </wgt>
<wgt id='1208'> +7.3575527e+01 </wgt>
<wgt id='1209'> +7.7606237e+01 </wgt>
<wgt id='1210'> +7.6533165e+01 </wgt>
<wgt id='1211'> +7.9632871e+01 </wgt>
<wgt id='1212'> +7.9700019e+01 </wgt>
<wgt id='1213'> +7.7486588e+01 </wgt>
<wgt id='1214'> +7.5051119e+01 </wgt>
<wgt id='1215'> +7.3548288e+01 </wgt>
<wgt id='1216'> +7.8900380e+01 </wgt>
<wgt id='1217'> +7.8902877e+01 </wgt>
<wgt id='1218'> +7.8903144e+01 </wgt>
<wgt id='1219'> +7.8757361e+01 </wgt>
<wgt id='1220'> +7.9413930e+01 </wgt>
<wgt id='1221'> +7.8754650e+01 </wgt>
<wgt id='1222'> +7.8864868e+01 </wgt>
<wgt id='1223'> +7.8902429e+01 </wgt>
<wgt id='1224'> +7.8807540e+01 </wgt>
<wgt id='1225'> +7.9036970e+01 </wgt>
<wgt id='1226'> +7.8453045e+01 </wgt>
<wgt id='1227'> +7.8830812e+01 </wgt>
<wgt id='1228'> +7.8949322e+01 </wgt>
<wgt id='1229'> +7.9105624e+01 </wgt>
<wgt id='1230'> +7.9248508e+01 </wgt>
<wgt id='1231'> +7.8511523e+01 </wgt>
<wgt id='1232'> +7.8948806e+01 </wgt>
<wgt id='1233'> +7.8779285e+01 </wgt>
<wgt id='1234'> +7.9056312e+01 </wgt>
<wgt id='1235'> +7.8778868e+01 </wgt>
<wgt id='1236'> +7.8798308e+01 </wgt>
<wgt id='1237'> +7.8947722e+01 </wgt>
<wgt id='1238'> +7.8855993e+01 </wgt>
<wgt id='1239'> +7.8918187e+01 </wgt>
<wgt id='1240'> +7.8949615e+01 </wgt>
<wgt id='1241'> +7.8865491e+01 </wgt>
<wgt id='1242'> +7.8889163e+01 </wgt>
<wgt id='1243'> +7.9246416e+01 </wgt>
<wgt id='1244'> +7.8923783e+01 </wgt>
<wgt id='1245'> +7.8895252e+01 </wgt>
<wgt id='1246'> +7.8735536e+01 </wgt>
<wgt id='1247'> +7.9465691e+01 </wgt>
<wgt id='1248'> +7.8307630e+01 </wgt>
<wgt id='1249'> +7.9023707e+01 </wgt>
<wgt id='1250'> +7.8803572e+01 </wgt>
<wgt id='1251'> +7.8255994e+01 </wgt>
<wgt id='1252'> +7.8087733e+01 </wgt>
<wgt id='1253'> +7.8757517e+01 </wgt>
<wgt id='1254'> +7.8344345e+01 </wgt>
<wgt id='1255'> +7.8635795e+01 </wgt>
<wgt id='1256'> +7.8635126e+01 </wgt>
<wgt id='1257'> +7.8388658e+01 </wgt>
<wgt id='1258'> +7.8602282e+01 </wgt>
<wgt id='1259'> +7.9426168e+01 </wgt>
<wgt id='1260'> +7.8369953e+01 </wgt>
<wgt id='1261'> +7.8577788e+01 </wgt>
<wgt id='1262'> +7.8610113e+01 </wgt>
<wgt id='1263'> +7.9095477e+01 </wgt>
<wgt id='1264'> +7.8877222e+01 </wgt>
<wgt id='1265'> +7.8689368e+01 </wgt>
<wgt id='1266'> +7.9404622e+01 </wgt>
<wgt id='1267'> +7.9532513e+01 </wgt>
<wgt id='1268'> +7.8940257e+01 </wgt>
<wgt id='1269'> +7.8845245e+01 </wgt>
<wgt id='1270'> +7.8944600e+01 </wgt>
<wgt id='1271'> +7.8759113e+01 </wgt>
<wgt id='1272'> +7.8845433e+01 </wgt>
<wgt id='1273'> +7.8394900e+01 </wgt>
<wgt id='1274'> +7.8448230e+01 </wgt>
<wgt id='1275'> +7.9295402e+01 </wgt>
<wgt id='1276'> +7.9343254e+01 </wgt>
<wgt id='1277'> +7.8918920e+01 </wgt>
<wgt id='1278'> +7.8857946e+01 </wgt>
<wgt id='1279'> +7.9284649e+01 </wgt>
<wgt id='1280'> +7.8996007e+01 </wgt>
<wgt id='1281'> +7.8813082e+01 </wgt>
<wgt id='1282'> +7.9078528e+01 </wgt>
<wgt id='1283'> +7.8985503e+01 </wgt>
<wgt id='1284'> +7.8925244e+01 </wgt>
<wgt id='1285'> +7.8749358e+01 </wgt>
<wgt id='1286'> +7.8543241e+01 </wgt>
<wgt id='1287'> +7.8887055e+01 </wgt>
<wgt id='1288'> +7.8944929e+01 </wgt>
<wgt id='1289'> +7.8562047e+01 </wgt>
<wgt id='1290'> +7.8850429e+01 </wgt>
<wgt id='1291'> +7.8585202e+01 </wgt>
<wgt id='1292'> +7.8814945e+01 </wgt>
<wgt id='1293'> +7.8911450e+01 </wgt>
<wgt id='1294'> +7.8906642e+01 </wgt>
<wgt id='1295'> +7.8730754e+01 </wgt>
<wgt id='1296'> +7.8890140e+01 </wgt>
<wgt id='1297'> +7.8991720e+01 </wgt>
<wgt id='1298'> +7.8934348e+01 </wgt>
<wgt id='1299'> +7.9018376e+01 </wgt>
<wgt id='1300'> +7.8667541e+01 </wgt>
<wgt id='1301'> +7.8924666e+01 </wgt>
<wgt id='1302'> +7.8887048e+01 </wgt>
<wgt id='1303'> +7.9063643e+01 </wgt>
<wgt id='1304'> +7.8811033e+01 </wgt>
<wgt id='1305'> +7.8633105e+01 </wgt>
<wgt id='1306'> +7.8865360e+01 </wgt>
<wgt id='1307'> +7.9087681e+01 </wgt>
<wgt id='1308'> +7.8739557e+01 </wgt>
<wgt id='1309'> +7.8787650e+01 </wgt>
<wgt id='1310'> +7.8939755e+01 </wgt>
<wgt id='1311'> +7.9105310e+01 </wgt>
<wgt id='1312'> +7.8748647e+01 </wgt>
<wgt id='1313'> +7.8874783e+01 </wgt>
<wgt id='1314'> +7.9017458e+01 </wgt>
<wgt id='1315'> +7.9109411e+01 </wgt>
<wgt id='1316'> +7.8692899e+01 </wgt>
<wgt id='1317'> +7.6280752e+01 </wgt>
<wgt id='1318'> +8.2055612e+01 </wgt>
<wgt id='1319'> +8.5831027e+01 </wgt>
<wgt id='1320'> +7.2444610e+01 </wgt>
<wgt id='1321'> +7.2908189e+01 </wgt>
<wgt id='1322'> +7.2936753e+01 </wgt>
<wgt id='1323'> +7.0937539e+01 </wgt>
<wgt id='1324'> +7.1866729e+01 </wgt>
<wgt id='1325'> +7.4508641e+01 </wgt>
<wgt id='1326'> +7.1698906e+01 </wgt>
<wgt id='1327'> +7.3497983e+01 </wgt>
<wgt id='1328'> +6.9843707e+01 </wgt>
<wgt id='1329'> +7.2711271e+01 </wgt>
<wgt id='1330'> +7.1676981e+01 </wgt>
<wgt id='1331'> +7.0007193e+01 </wgt>
<wgt id='1332'> +7.4202432e+01 </wgt>
<wgt id='1333'> +7.3061661e+01 </wgt>
<wgt id='1334'> +7.1284920e+01 </wgt>
<wgt id='1335'> +7.4956229e+01 </wgt>
<wgt id='1336'> +6.9364548e+01 </wgt>
<wgt id='1337'> +7.3961525e+01 </wgt>
<wgt id='1338'> +7.0635735e+01 </wgt>
<wgt id='1339'> +7.3010954e+01 </wgt>
<wgt id='1340'> +7.1802178e+01 </wgt>
<wgt id='1341'> +7.3181836e+01 </wgt>
<wgt id='1342'> +7.0893777e+01 </wgt>
<wgt id='1343'> +7.1560218e+01 </wgt>
<wgt id='1344'> +7.3211440e+01 </wgt>
<wgt id='1345'> +7.1925113e+01 </wgt>
<wgt id='1346'> +7.2703107e+01 </wgt>
<wgt id='1347'> +7.1847077e+01 </wgt>
<wgt id='1348'> +7.3239740e+01 </wgt>
<wgt id='1349'> +6.9753123e+01 </wgt>
<wgt id='1350'> +7.3384931e+01 </wgt>
<wgt id='1351'> +7.2180958e+01 </wgt>
<wgt id='1352'> +7.2766938e+01 </wgt>
<wgt id='1353'> +7.2646279e+01 </wgt>
<wgt id='1354'> +7.1944403e+01 </wgt>
<wgt id='1355'> +7.2851405e+01 </wgt>
<wgt id='1356'> +7.2164908e+01 </wgt>
<wgt id='1357'> +7.1432754e+01 </wgt>
<wgt id='1358'> +7.3442386e+01 </wgt>
<wgt id='1359'> +7.0939989e+01 </wgt>
<wgt id='1360'> +7.2965282e+01 </wgt>
<wgt id='1361'> +7.0871864e+01 </wgt>
<wgt id='1362'> +7.4499808e+01 </wgt>
<wgt id='1363'> +7.2236523e+01 </wgt>
<wgt id='1364'> +7.2805532e+01 </wgt>
<wgt id='1365'> +7.2013897e+01 </wgt>
<wgt id='1366'> +7.1632139e+01 </wgt>
<wgt id='1367'> +7.0118447e+01 </wgt>
<wgt id='1368'> +7.1500272e+01 </wgt>
<wgt id='1369'> +7.0143593e+01 </wgt>
<wgt id='1370'> +7.2403056e+01 </wgt>
<wgt id='1371'> +7.1567804e+01 </wgt>
<wgt id='1372'> +7.0864459e+01 </wgt>
<wgt id='1373'> +7.1540165e+01 </wgt>
<wgt id='1374'> +7.2358898e+01 </wgt>
<wgt id='1375'> +7.2765298e+01 </wgt>
<wgt id='1376'> +7.4398385e+01 </wgt>
<wgt id='1377'> +6.8995711e+01 </wgt>
<wgt id='1378'> +7.6000225e+01 </wgt>
<wgt id='1379'> +7.1157722e+01 </wgt>
<wgt id='1380'> +6.7745701e+01 </wgt>
<wgt id='1381'> +7.4784673e+01 </wgt>
<wgt id='1382'> +6.7302572e+01 </wgt>
<wgt id='1383'> +7.6744944e+01 </wgt>
<wgt id='1384'> +7.5493740e+01 </wgt>
<wgt id='1385'> +9.7088004e+01 </wgt>
<wgt id='1386'> +9.7657684e+01 </wgt>
<wgt id='1387'> +9.6464393e+01 </wgt>
<wgt id='1388'> +9.7781645e+01 </wgt>
<wgt id='1389'> +9.5885888e+01 </wgt>
<wgt id='1390'> +9.7159539e+01 </wgt>
<wgt id='1391'> +9.6999730e+01 </wgt>
<wgt id='1392'> +9.6757859e+01 </wgt>
<wgt id='1393'> +9.7317309e+01 </wgt>
<wgt id='1394'> +9.7280460e+01 </wgt>
<wgt id='1395'> +9.6856548e+01 </wgt>
<wgt id='1396'> +9.6053574e+01 </wgt>
<wgt id='1397'> +9.7629508e+01 </wgt>
<wgt id='1398'> +9.6815865e+01 </wgt>
<wgt id='1399'> +9.7303655e+01 </wgt>
<wgt id='1400'> +9.7823715e+01 </wgt>
<wgt id='1401'> +9.6533275e+01 </wgt>
<wgt id='1402'> +9.7860659e+01 </wgt>
<wgt id='1403'> +9.6736101e+01 </wgt>
<wgt id='1404'> +9.9491198e+01 </wgt>
<wgt id='1405'> +9.5908367e+01 </wgt>
<wgt id='1406'> +9.7201900e+01 </wgt>
<wgt id='1407'> +9.6884284e+01 </wgt>
<wgt id='1408'> +9.6321563e+01 </wgt>
<wgt id='1409'> +9.8644174e+01 </wgt>
<wgt id='1410'> +9.7530559e+01 </wgt>
<wgt id='1411'> +9.5955019e+01 </wgt>
<wgt id='1412'> +9.7095210e+01 </wgt>
<wgt id='1413'> +9.7168808e+01 </wgt>
<wgt id='1414'> +9.6923300e+01 </wgt>
<wgt id='1415'> +9.7235162e+01 </wgt>
<wgt id='1416'> +9.6986841e+01 </wgt>
<wgt id='1417'> +9.7584664e+01 </wgt>
<wgt id='1418'> +9.7229233e+01 </wgt>
<wgt id='1419'> +9.6877235e+01 </wgt>
<wgt id='1420'> +9.6962978e+01 </wgt>
<wgt id='1421'> +9.6873098e+01 </wgt>
<wgt id='1422'> +9.6693654e+01 </wgt>
<wgt id='1423'> +9.7672667e+01 </wgt>
<wgt id='1424'> +9.8269949e+01 </wgt>
<wgt id='1425'> +9.5291245e+01 </wgt>
<wgt id='1426'> +9.8061437e+01 </wgt>
<wgt id='1427'> +9.6459017e+01 </wgt>
<wgt id='1428'> +9.5745025e+01 </wgt>
<wgt id='1429'> +9.6938171e+01 </wgt>
<wgt id='1430'> +9.7759480e+01 </wgt>
<wgt id='1431'> +9.7067636e+01 </wgt>
<wgt id='1432'> +9.7275625e+01 </wgt>
<wgt id='1433'> +9.7610091e+01 </wgt>
<wgt id='1434'> +9.8574450e+01 </wgt>
<wgt id='1435'> +9.8549537e+01 </wgt>
<wgt id='1436'> +6.2827834e+01 </wgt>
<wgt id='1437'> +6.2893856e+01 </wgt>
<wgt id='1438'> +6.2542356e+01 </wgt>
<wgt id='1439'> +6.2831490e+01 </wgt>
<wgt id='1440'> +6.2723216e+01 </wgt>
<wgt id='1441'> +6.3094854e+01 </wgt>
<wgt id='1442'> +6.2783762e+01 </wgt>
<wgt id='1443'> +6.3043578e+01 </wgt>
<wgt id='1444'> +6.2427348e+01 </wgt>
<wgt id='1445'> +6.2194789e+01 </wgt>
<wgt id='1446'> +6.3200612e+01 </wgt>
<wgt id='1447'> +6.2866747e+01 </wgt>
<wgt id='1448'> +6.2729831e+01 </wgt>
<wgt id='1449'> +6.3142651e+01 </wgt>
<wgt id='1450'> +6.2840556e+01 </wgt>
<wgt id='1451'> +6.2940751e+01 </wgt>
<wgt id='1452'> +6.2533691e+01 </wgt>
<wgt id='1453'> +6.3106811e+01 </wgt>
<wgt id='1454'> +6.3024292e+01 </wgt>
<wgt id='1455'> +6.2815573e+01 </wgt>
<wgt id='1456'> +6.3343439e+01 </wgt>
<wgt id='1457'> +6.2972752e+01 </wgt>
<wgt id='1458'> +6.3256605e+01 </wgt>
<wgt id='1459'> +6.3735230e+01 </wgt>
<wgt id='1460'> +6.2951018e+01 </wgt>
<wgt id='1461'> +6.2364147e+01 </wgt>
<wgt id='1462'> +6.3156772e+01 </wgt>
<wgt id='1463'> +6.1571622e+01 </wgt>
<wgt id='1464'> +6.2371006e+01 </wgt>
<wgt id='1465'> +7.3067448e+01 </wgt>
<wgt id='1466'> +7.4929308e+01 </wgt>
<wgt id='1467'> +7.5153127e+01 </wgt>
<wgt id='1468'> +7.5319471e+01 </wgt>
<wgt id='1469'> +7.5374650e+01 </wgt>
<wgt id='1470'> +7.4845336e+01 </wgt>
<wgt id='1471'> +7.4563905e+01 </wgt>
<wgt id='1472'> +7.5056972e+01 </wgt>
<wgt id='1473'> +7.4587493e+01 </wgt>
<wgt id='1474'> +7.4708215e+01 </wgt>
<wgt id='1475'> +7.5417128e+01 </wgt>
<wgt id='1476'> +7.5929229e+01 </wgt>
<wgt id='1477'> +7.4515808e+01 </wgt>
<wgt id='1478'> +7.4981302e+01 </wgt>
<wgt id='1479'> +7.3847030e+01 </wgt>
<wgt id='1480'> +7.4377145e+01 </wgt>
<wgt id='1481'> +7.5218310e+01 </wgt>
<wgt id='1482'> +7.4280433e+01 </wgt>
<wgt id='1483'> +7.5525440e+01 </wgt>
<wgt id='1484'> +7.5295086e+01 </wgt>
<wgt id='1485'> +7.4625568e+01 </wgt>
<wgt id='1486'> +7.5164347e+01 </wgt>
<wgt id='1487'> +7.4964240e+01 </wgt>
<wgt id='1488'> +7.5216217e+01 </wgt>
<wgt id='1489'> +7.5630153e+01 </wgt>
<wgt id='1490'> +7.4606448e+01 </wgt>
<wgt id='1491'> +7.3653987e+01 </wgt>
<wgt id='1492'> +7.4553064e+01 </wgt>
<wgt id='1493'> +7.5731280e+01 </wgt>
<wgt id='1494'> +7.4219365e+01 </wgt>
<wgt id='1495'> +7.4946466e+01 </wgt>
<wgt id='1496'> +7.5869966e+01 </wgt>
<wgt id='1497'> +7.4641076e+01 </wgt>
<wgt id='1498'> +7.5395195e+01 </wgt>
<wgt id='1499'> +7.5564276e+01 </wgt>
<wgt id='1500'> +7.5137340e+01 </wgt>
<wgt id='1501'> +7.5365181e+01 </wgt>
<wgt id='1502'> +7.4851894e+01 </wgt>
<wgt id='1503'> +7.5122044e+01 </wgt>
<wgt id='1504'> +7.4992554e+01 </wgt>
<wgt id='1505'> +7.5236138e+01 </wgt>
<wgt id='1506'> +7.5088665e+01 </wgt>
<wgt id='1507'> +7.5084800e+01 </wgt>
<wgt id='1508'> +7.5405230e+01 </wgt>
<wgt id='1509'> +7.4782753e+01 </wgt>
<wgt id='1510'> +7.4890220e+01 </wgt>
<wgt id='1511'> +7.5325200e+01 </wgt>
<wgt id='1512'> +7.5004566e+01 </wgt>
<wgt id='1513'> +7.4746097e+01 </wgt>
<wgt id='1514'> +7.4956128e+01 </wgt>
<wgt id='1515'> +7.4792589e+01 </wgt>
<wgt id='1516'> +7.4881565e+01 </wgt>
<wgt id='1517'> +7.5083998e+01 </wgt>
<wgt id='1518'> +7.5109039e+01 </wgt>
<wgt id='1519'> +7.4731258e+01 </wgt>
<wgt id='1520'> +7.4989590e+01 </wgt>
<wgt id='1521'> +7.4889266e+01 </wgt>
<wgt id='1522'> +7.4944631e+01 </wgt>
<wgt id='1523'> +7.4977236e+01 </wgt>
<wgt id='1524'> +7.4901263e+01 </wgt>
<wgt id='1525'> +7.4291318e+01 </wgt>
<wgt id='1526'> +7.4872987e+01 </wgt>
<wgt id='1527'> +7.5210456e+01 </wgt>
<wgt id='1528'> +7.4375300e+01 </wgt>
<wgt id='1529'> +7.4417949e+01 </wgt>
<wgt id='1530'> +7.4893155e+01 </wgt>
<wgt id='1531'> +7.4912225e+01 </wgt>
<wgt id='1532'> +7.4640196e+01 </wgt>
<wgt id='1533'> +7.4986382e+01 </wgt>
<wgt id='1534'> +7.5055833e+01 </wgt>
<wgt id='1535'> +7.5034374e+01 </wgt>
<wgt id='1536'> +7.4632816e+01 </wgt>
<wgt id='1537'> +7.4987314e+01 </wgt>
<wgt id='1538'> +7.5207864e+01 </wgt>
<wgt id='1539'> +7.5156811e+01 </wgt>
<wgt id='1540'> +7.4882884e+01 </wgt>
<wgt id='1541'> +7.4939985e+01 </wgt>
<wgt id='1542'> +7.4999024e+01 </wgt>
<wgt id='1543'> +7.5076189e+01 </wgt>
<wgt id='1544'> +7.4794948e+01 </wgt>
<wgt id='1545'> +7.5346195e+01 </wgt>
<wgt id='1546'> +7.5326337e+01 </wgt>
<wgt id='1547'> +7.5036815e+01 </wgt>
<wgt id='1548'> +7.4849265e+01 </wgt>
<wgt id='1549'> +7.4877970e+01 </wgt>
<wgt id='1550'> +7.4901943e+01 </wgt>
<wgt id='1551'> +7.4734210e+01 </wgt>
<wgt id='1552'> +7.5111742e+01 </wgt>
<wgt id='1553'> +7.4936319e+01 </wgt>
<wgt id='1554'> +7.4815590e+01 </wgt>
<wgt id='1555'> +7.4840691e+01 </wgt>
<wgt id='1556'> +7.5006647e+01 </wgt>
<wgt id='1557'> +7.4821106e+01 </wgt>
<wgt id='1558'> +7.4924301e+01 </wgt>
<wgt id='1559'> +7.4755124e+01 </wgt>
<wgt id='1560'> +7.4851527e+01 </wgt>
<wgt id='1561'> +7.4877699e+01 </wgt>
<wgt id='1562'> +7.4969083e+01 </wgt>
<wgt id='1563'> +7.4977671e+01 </wgt>
<wgt id='1564'> +7.4888642e+01 </wgt>
<wgt id='1565'> +7.5057131e+01 </wgt>
<wgt id='1566'> +7.5008428e+01 </wgt>
<wgt id='1567'> +7.2318266e+01 </wgt>
<wgt id='1568'> +7.7371816e+01 </wgt>
<wgt id='1569'> +7.3548606e+01 </wgt>
<wgt id='1570'> +7.3765424e+01 </wgt>
<wgt id='1571'> +7.3735451e+01 </wgt>
<wgt id='1572'> +7.3377144e+01 </wgt>
<wgt id='1573'> +7.3850151e+01 </wgt>
<wgt id='1574'> +7.3856783e+01 </wgt>
<wgt id='1575'> +7.3235880e+01 </wgt>
<wgt id='1576'> +7.3223004e+01 </wgt>
<wgt id='1577'> +7.3490115e+01 </wgt>
<wgt id='1578'> +7.3450165e+01 </wgt>
<wgt id='1579'> +7.3025777e+01 </wgt>
<wgt id='1580'> +7.4005010e+01 </wgt>
<wgt id='1581'> +7.3755776e+01 </wgt>
<wgt id='1582'> +7.3042581e+01 </wgt>
<wgt id='1583'> +7.3723822e+01 </wgt>
<wgt id='1584'> +7.4989258e+01 </wgt>
<wgt id='1585'> +7.3567653e+01 </wgt>
<wgt id='1586'> +7.3245151e+01 </wgt>
<wgt id='1587'> +7.4145201e+01 </wgt>
<wgt id='1588'> +7.2730768e+01 </wgt>
<wgt id='1589'> +7.2988660e+01 </wgt>
<wgt id='1590'> +7.3952070e+01 </wgt>
<wgt id='1591'> +7.2671239e+01 </wgt>
<wgt id='1592'> +7.3411967e+01 </wgt>
<wgt id='1593'> +7.4019017e+01 </wgt>
<wgt id='1594'> +7.3558241e+01 </wgt>
<wgt id='1595'> +7.3409349e+01 </wgt>
<wgt id='1596'> +7.3458155e+01 </wgt>
<wgt id='1597'> +7.3263125e+01 </wgt>
<wgt id='1598'> +7.3240024e+01 </wgt>
<wgt id='1599'> +7.3538787e+01 </wgt>
<wgt id='1600'> +7.2601807e+01 </wgt>
<wgt id='1601'> +7.3487764e+01 </wgt>
<wgt id='1602'> +7.2570990e+01 </wgt>
<wgt id='1603'> +7.2936533e+01 </wgt>
<wgt id='1604'> +7.3878552e+01 </wgt>
<wgt id='1605'> +7.3768929e+01 </wgt>
<wgt id='1606'> +7.3437380e+01 </wgt>
<wgt id='1607'> +7.3451164e+01 </wgt>
<wgt id='1608'> +7.3912030e+01 </wgt>
<wgt id='1609'> +7.3196257e+01 </wgt>
<wgt id='1610'> +7.3361296e+01 </wgt>
<wgt id='1611'> +7.3193678e+01 </wgt>
<wgt id='1612'> +7.3464043e+01 </wgt>
<wgt id='1613'> +7.3432228e+01 </wgt>
<wgt id='1614'> +7.3844602e+01 </wgt>
<wgt id='1615'> +7.3402256e+01 </wgt>
<wgt id='1616'> +7.3167697e+01 </wgt>
<wgt id='1617'> +7.3380347e+01 </wgt>
<wgt id='1618'> +7.3698692e+01 </wgt>
<wgt id='1619'> +7.3529452e+01 </wgt>
<wgt id='1620'> +7.3592213e+01 </wgt>
<wgt id='1621'> +7.3639609e+01 </wgt>
<wgt id='1622'> +7.3729015e+01 </wgt>
<wgt id='1623'> +7.3580890e+01 </wgt>
<wgt id='1624'> +7.3708708e+01 </wgt>
<wgt id='1625'> +7.3689996e+01 </wgt>
<wgt id='1626'> +7.3211959e+01 </wgt>
<wgt id='1627'> +7.3624440e+01 </wgt>
<wgt id='1628'> +7.3472037e+01 </wgt>
<wgt id='1629'> +7.3815982e+01 </wgt>
<wgt id='1630'> +7.3237728e+01 </wgt>
<wgt id='1631'> +7.3523657e+01 </wgt>
<wgt id='1632'> +7.3752877e+01 </wgt>
<wgt id='1633'> +7.3070789e+01 </wgt>
<wgt id='1634'> +7.4339223e+01 </wgt>
<wgt id='1635'> +7.3166665e+01 </wgt>
<wgt id='1636'> +7.3721477e+01 </wgt>
<wgt id='1637'> +7.4078928e+01 </wgt>
<wgt id='1638'> +7.3526019e+01 </wgt>
<wgt id='1639'> +7.3637378e+01 </wgt>
<wgt id='1640'> +7.3715736e+01 </wgt>
<wgt id='1641'> +7.3940162e+01 </wgt>
<wgt id='1642'> +7.3434959e+01 </wgt>
<wgt id='1643'> +7.3498543e+01 </wgt>
<wgt id='1644'> +7.3502110e+01 </wgt>
<wgt id='1645'> +7.3454861e+01 </wgt>
<wgt id='1646'> +7.3389182e+01 </wgt>
<wgt id='1647'> +7.3355990e+01 </wgt>
<wgt id='1648'> +7.3405943e+01 </wgt>
<wgt id='1649'> +7.3864729e+01 </wgt>
<wgt id='1650'> +7.3541577e+01 </wgt>
<wgt id='1651'> +7.3618411e+01 </wgt>
<wgt id='1652'> +7.3306253e+01 </wgt>
<wgt id='1653'> +7.3436836e+01 </wgt>
<wgt id='1654'> +7.3489838e+01 </wgt>
<wgt id='1655'> +7.3539198e+01 </wgt>
<wgt id='1656'> +7.3428438e+01 </wgt>
<wgt id='1657'> +7.3590157e+01 </wgt>
<wgt id='1658'> +7.3557879e+01 </wgt>
<wgt id='1659'> +7.3577420e+01 </wgt>
<wgt id='1660'> +7.3505094e+01 </wgt>
<wgt id='1661'> +7.3451381e+01 </wgt>
<wgt id='1662'> +7.3612164e+01 </wgt>
<wgt id='1663'> +7.3315141e+01 </wgt>
<wgt id='1664'> +7.3518904e+01 </wgt>
<wgt id='1665'> +7.3695920e+01 </wgt>
<wgt id='1666'> +7.3519494e+01 </wgt>
<wgt id='1667'> +7.3410508e+01 </wgt>
<wgt id='1668'> +7.3529656e+01 </wgt>
<wgt id='1669'> +7.3549040e+01 </wgt>
<wgt id='1670'> +7.1314522e+01 </wgt>
<wgt id='1671'> +7.5920151e+01 </wgt>
<wgt id='1672'> +7.5011185e+01 </wgt>
<wgt id='1673'> +7.7027786e+01 </wgt>
<wgt id='1674'> +7.3989690e+01 </wgt>
<wgt id='1675'> +7.4929669e+01 </wgt>
<wgt id='1676'> +7.4489941e+01 </wgt>
<wgt id='1677'> +7.5304638e+01 </wgt>
<wgt id='1678'> +7.6179508e+01 </wgt>
<wgt id='1679'> +7.4993472e+01 </wgt>
<wgt id='1680'> +7.4993435e+01 </wgt>
<wgt id='1681'> +7.5053365e+01 </wgt>
<wgt id='1682'> +7.5205971e+01 </wgt>
<wgt id='1683'> +7.4842917e+01 </wgt>
<wgt id='1684'> +7.4458053e+01 </wgt>
<wgt id='1685'> +7.4867480e+01 </wgt>
<wgt id='1686'> +7.4428771e+01 </wgt>
<wgt id='1687'> +7.4490227e+01 </wgt>
<wgt id='1688'> +7.5199537e+01 </wgt>
<wgt id='1689'> +7.5166356e+01 </wgt>
<wgt id='1690'> +7.4680090e+01 </wgt>
<wgt id='1691'> +7.4892621e+01 </wgt>
<wgt id='1692'> +7.5583308e+01 </wgt>
<wgt id='1693'> +7.5086918e+01 </wgt>
<wgt id='1694'> +7.5106497e+01 </wgt>
<wgt id='1695'> +7.5150251e+01 </wgt>
<wgt id='1696'> +7.5667982e+01 </wgt>
<wgt id='1697'> +7.4789928e+01 </wgt>
<wgt id='1698'> +7.5318818e+01 </wgt>
<wgt id='1699'> +7.3387077e+01 </wgt>
<wgt id='1700'> +7.5511365e+01 </wgt>
<wgt id='1701'> +7.5107093e+01 </wgt>
<wgt id='1702'> +7.4964713e+01 </wgt>
<wgt id='1703'> +7.2318266e+01 </wgt>
<wgt id='1704'> +7.7371816e+01 </wgt>
<wgt id='1705'> +7.3545514e+01 </wgt>
<wgt id='1706'> +7.3824574e+01 </wgt>
<wgt id='1707'> +7.5034657e+01 </wgt>
<wgt id='1708'> +7.3547818e+01 </wgt>
<wgt id='1709'> +7.3900158e+01 </wgt>
<wgt id='1710'> +7.3507195e+01 </wgt>
<wgt id='1711'> +7.3585314e+01 </wgt>
<wgt id='1712'> +7.3354157e+01 </wgt>
<wgt id='1713'> +7.4006680e+01 </wgt>
<wgt id='1714'> +7.2381357e+01 </wgt>
<wgt id='1715'> +7.3199825e+01 </wgt>
<wgt id='1716'> +7.4656574e+01 </wgt>
<wgt id='1717'> +7.3366343e+01 </wgt>
<wgt id='1718'> +7.3791533e+01 </wgt>
<wgt id='1719'> +7.3435665e+01 </wgt>
<wgt id='1720'> +7.4485359e+01 </wgt>
<wgt id='1721'> +7.3672713e+01 </wgt>
<wgt id='1722'> +7.3472750e+01 </wgt>
<wgt id='1723'> +7.3538046e+01 </wgt>
<wgt id='1724'> +7.3675408e+01 </wgt>
<wgt id='1725'> +7.3708701e+01 </wgt>
<wgt id='1726'> +7.3191083e+01 </wgt>
<wgt id='1727'> +7.3874560e+01 </wgt>
<wgt id='1728'> +7.3596760e+01 </wgt>
<wgt id='1729'> +7.3316647e+01 </wgt>
<wgt id='1730'> +7.3687653e+01 </wgt>
<wgt id='1731'> +7.1657996e+01 </wgt>
<wgt id='1732'> +7.3521469e+01 </wgt>
<wgt id='1733'> +7.3281765e+01 </wgt>
<wgt id='1734'> +7.3934851e+01 </wgt>
<wgt id='1735'> +7.3320281e+01 </wgt>
<wgt id='1736'> +7.1314522e+01 </wgt>
<wgt id='1737'> +7.5920151e+01 </wgt>
<wgt id='1738'> +9.1233582e+01 </wgt>
<wgt id='1739'> +9.1464067e+01 </wgt>
<wgt id='1740'> +9.1003602e+01 </wgt>
<wgt id='1741'> +9.0855543e+01 </wgt>
<wgt id='1742'> +9.1611213e+01 </wgt>
<wgt id='1743'> +9.1464411e+01 </wgt>
<wgt id='1744'> +9.1003299e+01 </wgt>
<wgt id='1745'> +9.0568267e+01 </wgt>
<wgt id='1746'> +9.1885825e+01 </wgt>
<wgt id='1747'> +9.1777747e+01 </wgt>
<wgt id='1748'> +9.0686635e+01 </wgt>
<wgt id='1749'> +9.1457538e+01 </wgt>
<wgt id='1750'> +9.1050960e+01 </wgt>
<wgt id='1751'> +9.1431461e+01 </wgt>
<wgt id='1752'> +9.1033609e+01 </wgt>
<wgt id='1753'> +9.1251221e+01 </wgt>
<wgt id='1754'> +9.1090255e+01 </wgt>
<wgt id='1755'> +9.2021639e+01 </wgt>
<wgt id='1756'> +9.0556380e+01 </wgt>
<wgt id='1757'> +9.0873322e+01 </wgt>
<wgt id='1758'> +9.1532463e+01 </wgt>
<wgt id='1759'> +9.3622803e+01 </wgt>
<wgt id='1760'> +8.8908726e+01 </wgt>
<wgt id='1761'> +9.1218939e+01 </wgt>
<wgt id='1762'> +9.1042435e+01 </wgt>
<wgt id='1763'> +8.9290352e+01 </wgt>
<wgt id='1764'> +9.3281950e+01 </wgt>
<wgt id='1765'> +8.9770273e+01 </wgt>
<wgt id='1766'> +9.1851948e+01 </wgt>
<wgt id='1767'> +9.1233582e+01 </wgt>
<wgt id='1768'> +9.1338509e+01 </wgt>
<wgt id='1769'> +9.1185795e+01 </wgt>
<wgt id='1770'> +9.1342027e+01 </wgt>
<wgt id='1771'> +9.1198553e+01 </wgt>
<wgt id='1772'> +9.0670671e+01 </wgt>
<wgt id='1773'> +9.0546308e+01 </wgt>
<wgt id='1774'> +9.0997175e+01 </wgt>
<wgt id='1775'> +9.1490636e+01 </wgt>
<wgt id='1776'> +9.0473118e+01 </wgt>
<wgt id='1777'> +9.2020981e+01 </wgt>
<wgt id='1778'> +9.1594537e+01 </wgt>
<wgt id='1779'> +9.1641278e+01 </wgt>
<wgt id='1780'> +9.3106883e+01 </wgt>
<wgt id='1781'> +7.8521612e+01 </wgt>
<wgt id='1782'> +7.8652005e+01 </wgt>
<wgt id='1783'> +7.8408044e+01 </wgt>
<wgt id='1784'> +7.8221290e+01 </wgt>
<wgt id='1785'> +7.8839066e+01 </wgt>
<wgt id='1786'> +7.8607790e+01 </wgt>
<wgt id='1787'> +7.8452040e+01 </wgt>
<wgt id='1788'> +7.7879278e+01 </wgt>
<wgt id='1789'> +7.9169888e+01 </wgt>
<wgt id='1790'> +7.8774514e+01 </wgt>
<wgt id='1791'> +7.8287850e+01 </wgt>
<wgt id='1792'> +7.8667069e+01 </wgt>
<wgt id='1793'> +7.8393849e+01 </wgt>
<wgt id='1794'> +7.8421380e+01 </wgt>
<wgt id='1795'> +7.8632082e+01 </wgt>
<wgt id='1796'> +7.8449706e+01 </wgt>
<wgt id='1797'> +7.8437789e+01 </wgt>
<wgt id='1798'> +7.7741009e+01 </wgt>
<wgt id='1799'> +7.9328516e+01 </wgt>
<wgt id='1800'> +7.9210744e+01 </wgt>
<wgt id='1801'> +7.7862291e+01 </wgt>
<wgt id='1802'> +7.6409106e+01 </wgt>
<wgt id='1803'> +8.0714250e+01 </wgt>
<wgt id='1804'> +7.6352088e+01 </wgt>
<wgt id='1805'> +8.0813152e+01 </wgt>
<wgt id='1806'> +7.8395622e+01 </wgt>
<wgt id='1807'> +7.8378307e+01 </wgt>
<wgt id='1808'> +7.7869244e+01 </wgt>
<wgt id='1809'> +7.8196780e+01 </wgt>
<wgt id='1810'> +7.8342877e+01 </wgt>
<wgt id='1811'> +7.8154613e+01 </wgt>
<wgt id='1812'> +7.9265618e+01 </wgt>
<wgt id='1813'> +7.8291737e+01 </wgt>
<wgt id='1814'> +7.8684388e+01 </wgt>
<wgt id='1815'> +7.3687672e+01 </wgt>
<wgt id='1816'> +8.1337866e+01 </wgt>
<wgt id='1817'> +7.8150614e+01 </wgt>
<wgt id='1818'> +7.8637850e+01 </wgt>
<wgt id='1819'> +7.8575247e+01 </wgt>
<wgt id='1820'> +7.6258280e+01 </wgt>
<wgt id='1821'> +7.9414399e+01 </wgt>
<wgt id='1822'> +7.9513200e+01 </wgt>
<wgt id='1823'> +8.3203882e+01 </wgt>
<wgt id='1824'> +7.1543916e+01 </wgt>
<wgt id='1825'> +7.1507646e+01 </wgt>
<wgt id='1826'> +7.1471369e+01 </wgt>
<wgt id='1827'> +7.1435141e+01 </wgt>
<wgt id='1828'> +7.1398881e+01 </wgt>
<wgt id='1829'> +7.1362650e+01 </wgt>
<wgt id='1830'> +7.1326309e+01 </wgt>
<wgt id='1831'> +7.1289944e+01 </wgt>
<wgt id='1832'> +7.1254089e+01 </wgt>
<wgt id='1833'> +7.1217855e+01 </wgt>
<wgt id='1834'> +7.1181631e+01 </wgt>
<wgt id='1835'> +7.1145442e+01 </wgt>
<wgt id='1836'> +7.1109112e+01 </wgt>
<wgt id='1837'> +7.1073057e+01 </wgt>
<wgt id='1838'> +7.1036706e+01 </wgt>
<wgt id='1839'> +7.1000538e+01 </wgt>
<wgt id='1840'> +7.0964339e+01 </wgt>
<wgt id='1841'> +7.0928207e+01 </wgt>
<wgt id='1842'> +7.0892247e+01 </wgt>
<wgt id='1843'> +7.0856032e+01 </wgt>
<wgt id='1844'> +7.0819879e+01 </wgt>
<wgt id='1845'> +7.0783706e+01 </wgt>
<wgt id='1846'> +7.0747499e+01 </wgt>
<wgt id='1847'> +7.0711346e+01 </wgt>
<wgt id='1848'> +7.0675122e+01 </wgt>
<wgt id='1849'> +7.0639078e+01 </wgt>
<wgt id='1850'> +7.0602974e+01 </wgt>
<wgt id='1851'> +7.0566845e+01 </wgt>
<wgt id='1852'> +7.0530973e+01 </wgt>
<wgt id='1853'> +7.0494816e+01 </wgt>
<wgt id='1854'> +7.0458653e+01 </wgt>
<wgt id='1855'> +7.3016213e+01 </wgt>
<wgt id='1856'> +7.3229089e+01 </wgt>
<wgt id='1857'> +7.3199119e+01 </wgt>
<wgt id='1858'> +7.2848208e+01 </wgt>
<wgt id='1859'> +7.3315545e+01 </wgt>
<wgt id='1860'> +7.3323428e+01 </wgt>
<wgt id='1861'> +7.2707511e+01 </wgt>
<wgt id='1862'> +7.2692997e+01 </wgt>
<wgt id='1863'> +7.2957324e+01 </wgt>
<wgt id='1864'> +7.2919446e+01 </wgt>
<wgt id='1865'> +7.2497336e+01 </wgt>
<wgt id='1866'> +7.3472787e+01 </wgt>
<wgt id='1867'> +7.3222954e+01 </wgt>
<wgt id='1868'> +7.2516672e+01 </wgt>
<wgt id='1869'> +7.3187703e+01 </wgt>
<wgt id='1870'> +7.4442592e+01 </wgt>
<wgt id='1871'> +7.3037855e+01 </wgt>
<wgt id='1872'> +7.2712904e+01 </wgt>
<wgt id='1873'> +7.3607952e+01 </wgt>
<wgt id='1874'> +7.2206260e+01 </wgt>
<wgt id='1875'> +7.2460790e+01 </wgt>
<wgt id='1876'> +7.3413568e+01 </wgt>
<wgt id='1877'> +7.2144310e+01 </wgt>
<wgt id='1878'> +7.2878687e+01 </wgt>
<wgt id='1879'> +7.3481315e+01 </wgt>
<wgt id='1880'> +7.3022484e+01 </wgt>
<wgt id='1881'> +7.2874915e+01 </wgt>
<wgt id='1882'> +7.2929908e+01 </wgt>
<wgt id='1883'> +7.2733804e+01 </wgt>
<wgt id='1884'> +7.2707995e+01 </wgt>
<wgt id='1885'> +7.3006196e+01 </wgt>
<wgt id='1886'> +7.2077699e+01 </wgt>
<wgt id='1887'> +7.2955403e+01 </wgt>
<wgt id='1888'> +7.2043091e+01 </wgt>
<wgt id='1889'> +7.2408396e+01 </wgt>
<wgt id='1890'> +7.3344713e+01 </wgt>
<wgt id='1891'> +7.3234563e+01 </wgt>
<wgt id='1892'> +7.2906725e+01 </wgt>
<wgt id='1893'> +7.2918935e+01 </wgt>
<wgt id='1894'> +7.3376955e+01 </wgt>
<wgt id='1895'> +7.2666195e+01 </wgt>
<wgt id='1896'> +7.2827740e+01 </wgt>
<wgt id='1897'> +7.2662123e+01 </wgt>
<wgt id='1898'> +7.2933469e+01 </wgt>
<wgt id='1899'> +7.2900806e+01 </wgt>
<wgt id='1900'> +7.3309910e+01 </wgt>
<wgt id='1901'> +7.2872486e+01 </wgt>
<wgt id='1902'> +7.2638814e+01 </wgt>
<wgt id='1903'> +7.2849043e+01 </wgt>
<wgt id='1904'> +7.3165558e+01 </wgt>
<wgt id='1905'> +7.2996825e+01 </wgt>
<wgt id='1906'> +7.3059734e+01 </wgt>
<wgt id='1907'> +7.3106126e+01 </wgt>
<wgt id='1908'> +7.3195995e+01 </wgt>
<wgt id='1909'> +7.3049666e+01 </wgt>
<wgt id='1910'> +7.3176677e+01 </wgt>
<wgt id='1911'> +7.3154044e+01 </wgt>
<wgt id='1912'> +7.2680685e+01 </wgt>
<wgt id='1913'> +7.3093757e+01 </wgt>
<wgt id='1914'> +7.2939929e+01 </wgt>
<wgt id='1915'> +7.3281703e+01 </wgt>
<wgt id='1916'> +7.2706915e+01 </wgt>
<wgt id='1917'> +7.2990842e+01 </wgt>
<wgt id='1918'> +7.3219994e+01 </wgt>
<wgt id='1919'> +7.2540140e+01 </wgt>
<wgt id='1920'> +7.3802607e+01 </wgt>
<wgt id='1921'> +7.2636417e+01 </wgt>
<wgt id='1922'> +7.3187769e+01 </wgt>
<wgt id='1923'> +7.3543630e+01 </wgt>
<wgt id='1924'> +7.2994069e+01 </wgt>
<wgt id='1925'> +7.3104682e+01 </wgt>
<wgt id='1926'> +7.3182923e+01 </wgt>
<wgt id='1927'> +7.3406846e+01 </wgt>
<wgt id='1928'> +7.2901561e+01 </wgt>
<wgt id='1929'> +7.2965757e+01 </wgt>
<wgt id='1930'> +7.2970085e+01 </wgt>
<wgt id='1931'> +7.2923142e+01 </wgt>
<wgt id='1932'> +7.2856813e+01 </wgt>
<wgt id='1933'> +7.2825614e+01 </wgt>
<wgt id='1934'> +7.2874550e+01 </wgt>
<wgt id='1935'> +7.3330538e+01 </wgt>
<wgt id='1936'> +7.3009665e+01 </wgt>
<wgt id='1937'> +7.3085787e+01 </wgt>
<wgt id='1938'> +7.2774745e+01 </wgt>
<wgt id='1939'> +7.2905247e+01 </wgt>
<wgt id='1940'> +7.2957942e+01 </wgt>
<wgt id='1941'> +7.3008147e+01 </wgt>
<wgt id='1942'> +7.2897052e+01 </wgt>
<wgt id='1943'> +7.3057067e+01 </wgt>
<wgt id='1944'> +7.3026072e+01 </wgt>
<wgt id='1945'> +7.3044492e+01 </wgt>
<wgt id='1946'> +7.2973289e+01 </wgt>
<wgt id='1947'> +7.2919117e+01 </wgt>
<wgt id='1948'> +7.3079674e+01 </wgt>
<wgt id='1949'> +7.2783273e+01 </wgt>
<wgt id='1950'> +7.2987053e+01 </wgt>
<wgt id='1951'> +7.3163680e+01 </wgt>
<wgt id='1952'> +7.2987244e+01 </wgt>
<wgt id='1953'> +7.2878359e+01 </wgt>
<wgt id='1954'> +7.2998278e+01 </wgt>
<wgt id='1955'> +7.3016942e+01 </wgt>
<wgt id='1956'> +7.3015821e+01 </wgt>
<wgt id='1957'> +7.3018339e+01 </wgt>
<wgt id='1958'> +7.3016626e+01 </wgt>
<wgt id='1959'> +7.3016693e+01 </wgt>
<wgt id='1960'> +7.3017414e+01 </wgt>
<wgt id='1961'> +7.3016391e+01 </wgt>
<wgt id='1962'> +7.3018811e+01 </wgt>
</rwgt>
</event>
<event npLO=" -1 " npNLO=" 0 ">
 5      0 +1.5146096e+02 3.47872090e+01 7.54677110e-03 1.14644340e-01
        2 -1    0    0  501    0 +0.0000000000e+00 +0.0000000000e+00 +4.6323785000e+00 4.6323785000e+00 0.0000000000e+00 0.0000e+00 9.0000e+00
       -2 -1    0    0    0  501 +0.0000000000e+00 +0.0000000000e+00 -6.6147417000e+02 6.6147417000e+02 0.0000000000e+00 0.0000e+00 9.0000e+00
       13  1    1    2    0    0 +4.7402087000e+01 +1.2603654000e+01 -3.2468207000e+02 3.2836604000e+02 0.0000000000e+00 0.0000e+00 9.0000e+00
      -13  1    1    2    0    0 -1.2982639000e+01 -7.8032265000e+00 -2.1505814000e+02 2.1559092000e+02 0.0000000000e+00 0.0000e+00 9.0000e+00
       22  1    1    2    0    0 -3.4419448000e+01 -4.8004278000e+00 -1.1710157000e+02 1.2214959000e+02 0.0000000000e+00 0.0000e+00 9.0000e+00
#aMCatNLO 1  0  0  2  1 0.10040446E+02 0.00000000E+00 -9  6  0 0.00000000E+00 0.00000000E+00 0.00000000E+00 0.00000000E+00 0.00000000E+00
<rwgt>
<wgt id='1001'> +1.5146000e+02 </wgt>
<wgt id='1002'> +1.5146000e+02 </wgt>
<wgt id='1003'> +1.3850000e+02 </wgt>
<wgt id='1004'> +1.4637000e+02 </wgt>
<wgt id='1005'> +1.5519000e+02 </wgt>
<wgt id='1006'> +1.5257000e+02 </wgt>
<wgt id='1007'> +1.4784000e+02 </wgt>
<wgt id='1008'> +1.4639000e+02 </wgt>
<wgt id='1009'> +1.5361000e+02 </wgt>
<wgt id='1010'> +1.5235000e+02 </wgt>
<wgt id='1011'> +1.5074000e+02 </wgt>
<wgt id='1012'> +1.5804000e+02 </wgt>
<wgt id='1013'> +1.3822000e+02 </wgt>
<wgt id='1014'> +1.5162000e+02 </wgt>
<wgt id='1015'> +1.5620000e+02 </wgt>
<wgt id='1016'> +1.5524000e+02 </wgt>
<wgt id='1017'> +1.5058000e+02 </wgt>
<wgt id='1018'> +1.4947000e+02 </wgt>
<wgt id='1019'> +1.5226000e+02 </wgt>
<wgt id='1020'> +1.4603000e+02 </wgt>
<wgt id='1021'> +1.4967000e+02 </wgt>
<wgt id='1022'> +1.5830000e+02 </wgt>
<wgt id='1023'> +1.5143000e+02 </wgt>
<wgt id='1024'> +1.5495000e+02 </wgt>
<wgt id='1025'> +1.5556000e+02 </wgt>
<wgt id='1026'> +1.6488000e+02 </wgt>
<wgt id='1027'> +1.5260000e+02 </wgt>
<wgt id='1028'> +1.5123000e+02 </wgt>
<wgt id='1029'> +1.5378000e+02 </wgt>
<wgt id='1030'> +1.5269000e+02 </wgt>
<wgt id='1031'> +1.5260000e+02 </wgt>
<wgt id='1032'> +1.5495000e+02 </wgt>
<wgt id='1033'> +1.6540000e+02 </wgt>
<wgt id='1034'> +1.5131000e+02 </wgt>
<wgt id='1035'> +1.5706000e+02 </wgt>
<wgt id='1036'> +1.5440000e+02 </wgt>
<wgt id='1037'> +1.6106000e+02 </wgt>
<wgt id='1038'> +1.4768000e+02 </wgt>
<wgt id='1039'> +1.5596000e+02 </wgt>
<wgt id='1040'> +1.4492000e+02 </wgt>
<wgt id='1041'> +1.5145000e+02 </wgt>
<wgt id='1042'> +1.5079000e+02 </wgt>
<wgt id='1043'> +1.4606000e+02 </wgt>
<wgt id='1044'> +1.4527000e+02 </wgt>
<wgt id='1045'> +1.5552000e+02 </wgt>
<wgt id='1046'> +1.5029000e+02 </wgt>
<wgt id='1047'> +1.5355000e+02 </wgt>
<wgt id='1048'> +1.4731000e+02 </wgt>
<wgt id='1049'> +1.4439000e+02 </wgt>
<wgt id='1050'> +1.5425000e+02 </wgt>
<wgt id='1051'> +1.5828000e+02 </wgt>
<wgt id='1052'> +1.5222000e+02 </wgt>
<wgt id='1053'> +1.5020000e+02 </wgt>
<wgt id='1054'> +1.5104000e+02 </wgt>
<wgt id='1055'> +1.5706000e+02 </wgt>
<wgt id='1056'> +1.5140000e+02 </wgt>
<wgt id='1057'> +1.5564000e+02 </wgt>
<wgt id='1058'> +1.4841000e+02 </wgt>
<wgt id='1059'> +1.5039000e+02 </wgt>
<wgt id='1060'> +1.4537000e+02 </wgt>
<wgt id='1061'> +1.5621000e+02 </wgt>
<wgt id='1062'> +1.4964000e+02 </wgt>
<wgt id='1063'> +1.5009000e+02 </wgt>
<wgt id='1064'> +1.4855000e+02 </wgt>
<wgt id='1065'> +1.4808000e+02 </wgt>
<wgt id='1066'> +1.4366000e+02 </wgt>
<wgt id='1067'> +1.5310000e+02 </wgt>
<wgt id='1068'> +1.5754000e+02 </wgt>
<wgt id='1069'> +1.5272000e+02 </wgt>
<wgt id='1070'> +1.5729000e+02 </wgt>
<wgt id='1071'> +1.5550000e+02 </wgt>
<wgt id='1072'> +1.5599000e+02 </wgt>
<wgt id='1073'> +1.4781000e+02 </wgt>
<wgt id='1074'> +1.4290000e+02 </wgt>
<wgt id='1075'> +1.4070000e+02 </wgt>
<wgt id='1076'> +1.5155000e+02 </wgt>
<wgt id='1077'> +1.4818000e+02 </wgt>
<wgt id='1078'> +1.4257000e+02 </wgt>
<wgt id='1079'> +1.5119000e+02 </wgt>
<wgt id='1080'> +1.4826000e+02 </wgt>
<wgt id='1081'> +1.4497000e+02 </wgt>
<wgt id='1082'> +1.5301000e+02 </wgt>
<wgt id='1083'> +1.5286000e+02 </wgt>
<wgt id='1084'> +1.5614000e+02 </wgt>
<wgt id='1085'> +1.4484000e+02 </wgt>
<wgt id='1086'> +1.5863000e+02 </wgt>
<wgt id='1087'> +1.5020000e+02 </wgt>
<wgt id='1088'> +1.4909000e+02 </wgt>
<wgt id='1089'> +1.4770000e+02 </wgt>
<wgt id='1090'> +1.4633000e+02 </wgt>
<wgt id='1091'> +1.4531000e+02 </wgt>
<wgt id='1092'> +1.5988000e+02 </wgt>
<wgt id='1093'> +1.5091000e+02 </wgt>
<wgt id='1094'> +1.5405000e+02 </wgt>
<wgt id='1095'> +1.5073000e+02 </wgt>
<wgt id='1096'> +1.4677000e+02 </wgt>
<wgt id='1097'> +1.5367000e+02 </wgt>
<wgt id='1098'> +1.5348000e+02 </wgt>
<wgt id='1099'> +1.5685000e+02 </wgt>
<wgt id='1100'> +1.5704000e+02 </wgt>
<wgt id='1101'> +1.4688000e+02 </wgt>
<wgt id='1102'> +1.5582000e+02 </wgt>
<wgt id='1103'> +1.4987000e+02 </wgt>
<wgt id='1104'> +1.5162000e+02 </wgt>
<wgt id='1105'> +1.5146096e+02 </wgt>
<wgt id='1106'> +7.3176387e+01 </wgt>
<wgt id='1107'> +7.8873419e+01 </wgt>
<wgt id='1108'> +8.0639488e+01 </wgt>
<wgt id='1109'> +7.7966569e+01 </wgt>
<wgt id='1110'> +8.3928648e+01 </wgt>
<wgt id='1111'> +6.9905170e+01 </wgt>
<wgt id='1112'> +6.7504460e+01 </wgt>
<wgt id='1113'> +7.2859365e+01 </wgt>
<wgt id='1114'> +7.7937278e+01 </wgt>
<wgt id='1115'> +8.8306989e+01 </wgt>
<wgt id='1116'> +7.9323606e+01 </wgt>
<wgt id='1117'> +7.9461594e+01 </wgt>
<wgt id='1118'> +8.1120345e+01 </wgt>
<wgt id='1119'> +7.5949083e+01 </wgt>
<wgt id='1120'> +7.7387217e+01 </wgt>
<wgt id='1121'> +7.4383306e+01 </wgt>
<wgt id='1122'> +7.7271081e+01 </wgt>
<wgt id='1123'> +7.5297768e+01 </wgt>
<wgt id='1124'> +7.8195895e+01 </wgt>
<wgt id='1125'> +7.8536688e+01 </wgt>
<wgt id='1126'> +7.6518196e+01 </wgt>
<wgt id='1127'> +7.6227450e+01 </wgt>
<wgt id='1128'> +7.9692024e+01 </wgt>
<wgt id='1129'> +7.4817086e+01 </wgt>
<wgt id='1130'> +7.3279504e+01 </wgt>
<wgt id='1131'> +8.0652248e+01 </wgt>
<wgt id='1132'> +7.7917489e+01 </wgt>
<wgt id='1133'> +7.8862279e+01 </wgt>
<wgt id='1134'> +6.9688060e+01 </wgt>
<wgt id='1135'> +7.8272500e+01 </wgt>
<wgt id='1136'> +8.2551882e+01 </wgt>
<wgt id='1137'> +7.9157311e+01 </wgt>
<wgt id='1138'> +7.4743092e+01 </wgt>
<wgt id='1139'> +7.4372518e+01 </wgt>
<wgt id='1140'> +7.7427152e+01 </wgt>
<wgt id='1141'> +8.8290505e+01 </wgt>
<wgt id='1142'> +7.7685582e+01 </wgt>
<wgt id='1143'> +7.7542291e+01 </wgt>
<wgt id='1144'> +8.0914519e+01 </wgt>
<wgt id='1145'> +8.0702766e+01 </wgt>
<wgt id='1146'> +7.6872034e+01 </wgt>
<wgt id='1147'> +7.7982477e+01 </wgt>
<wgt id='1148'> +8.0120966e+01 </wgt>
<wgt id='1149'> +7.8507100e+01 </wgt>
<wgt id='1150'> +7.6391580e+01 </wgt>
<wgt id='1151'> +7.7794306e+01 </wgt>
<wgt id='1152'> +7.4913867e+01 </wgt>
<wgt id='1153'> +7.8739734e+01 </wgt>
<wgt id='1154'> +7.3750454e+01 </wgt>
<wgt id='1155'> +8.0759327e+01 </wgt>
<wgt id='1156'> +7.8698097e+01 </wgt>
<wgt id='1157'> +8.5177083e+01 </wgt>
<wgt id='1158'> +7.9472491e+01 </wgt>
<wgt id='1159'> +7.4383510e+01 </wgt>
<wgt id='1160'> +7.8669437e+01 </wgt>
<wgt id='1161'> +8.0932262e+01 </wgt>
<wgt id='1162'> +7.8725309e+01 </wgt>
<wgt id='1163'> +8.0153887e+01 </wgt>
<wgt id='1164'> +7.7346777e+01 </wgt>
<wgt id='1165'> +7.7425595e+01 </wgt>
<wgt id='1166'> +7.2543753e+01 </wgt>
<wgt id='1167'> +7.9816773e+01 </wgt>
<wgt id='1168'> +7.9403241e+01 </wgt>
<wgt id='1169'> +8.0806418e+01 </wgt>
<wgt id='1170'> +8.1314129e+01 </wgt>
<wgt id='1171'> +7.9782820e+01 </wgt>
<wgt id='1172'> +8.1390224e+01 </wgt>
<wgt id='1173'> +7.7372790e+01 </wgt>
<wgt id='1174'> +7.8230182e+01 </wgt>
<wgt id='1175'> +7.9779553e+01 </wgt>
<wgt id='1176'> +7.7694392e+01 </wgt>
<wgt id='1177'> +8.0657239e+01 </wgt>
<wgt id='1178'> +7.7719376e+01 </wgt>
<wgt id='1179'> +7.6000055e+01 </wgt>
<wgt id='1180'> +7.3971714e+01 </wgt>
<wgt id='1181'> +7.8971242e+01 </wgt>
<wgt id='1182'> +8.0289769e+01 </wgt>
<wgt id='1183'> +7.7281796e+01 </wgt>
<wgt id='1184'> +7.9344118e+01 </wgt>
<wgt id='1185'> +7.8400701e+01 </wgt>
<wgt id='1186'> +7.2448646e+01 </wgt>
<wgt id='1187'> +6.8586305e+01 </wgt>
<wgt id='1188'> +7.2084859e+01 </wgt>
<wgt id='1189'> +7.4851572e+01 </wgt>
<wgt id='1190'> +8.2144308e+01 </wgt>
<wgt id='1191'> +7.9148325e+01 </wgt>
<wgt id='1192'> +7.5982504e+01 </wgt>
<wgt id='1193'> +7.5907158e+01 </wgt>
<wgt id='1194'> +8.3411337e+01 </wgt>
<wgt id='1195'> +8.2610553e+01 </wgt>
<wgt id='1196'> +7.3279504e+01 </wgt>
<wgt id='1197'> +7.2777358e+01 </wgt>
<wgt id='1198'> +7.8766299e+01 </wgt>
<wgt id='1199'> +7.6072518e+01 </wgt>
<wgt id='1200'> +8.4425027e+01 </wgt>
<wgt id='1201'> +7.7314771e+01 </wgt>
<wgt id='1202'> +8.4561194e+01 </wgt>
<wgt id='1203'> +6.9611100e+01 </wgt>
<wgt id='1204'> +7.7323921e+01 </wgt>
<wgt id='1205'> +7.6274833e+01 </wgt>
<wgt id='1206'> +6.7099193e+01 </wgt>
<wgt id='1207'> +7.4459162e+01 </wgt>
<wgt id='1208'> +7.7195505e+01 </wgt>
<wgt id='1209'> +7.8638158e+01 </wgt>
<wgt id='1210'> +7.8017425e+01 </wgt>
<wgt id='1211'> +8.2447307e+01 </wgt>
<wgt id='1212'> +8.0721192e+01 </wgt>
<wgt id='1213'> +8.0348925e+01 </wgt>
<wgt id='1214'> +7.6449615e+01 </wgt>
<wgt id='1215'> +7.6386824e+01 </wgt>
<wgt id='1216'> +8.0697303e+01 </wgt>
<wgt id='1217'> +8.0603867e+01 </wgt>
<wgt id='1218'> +8.0826991e+01 </wgt>
<wgt id='1219'> +8.0258497e+01 </wgt>
<wgt id='1220'> +8.1564541e+01 </wgt>
<wgt id='1221'> +8.0273536e+01 </wgt>
<wgt id='1222'> +8.0401769e+01 </wgt>
<wgt id='1223'> +8.0384253e+01 </wgt>
<wgt id='1224'> +8.0425976e+01 </wgt>
<wgt id='1225'> +8.0590841e+01 </wgt>
<wgt id='1226'> +7.9967693e+01 </wgt>
<wgt id='1227'> +8.0654940e+01 </wgt>
<wgt id='1228'> +8.0883582e+01 </wgt>
<wgt id='1229'> +8.0906746e+01 </wgt>
<wgt id='1230'> +8.1055822e+01 </wgt>
<wgt id='1231'> +8.0254988e+01 </wgt>
<wgt id='1232'> +8.0757861e+01 </wgt>
<wgt id='1233'> +8.0628176e+01 </wgt>
<wgt id='1234'> +8.0874391e+01 </wgt>
<wgt id='1235'> +8.0821377e+01 </wgt>
<wgt id='1236'> +8.0859484e+01 </wgt>
<wgt id='1237'> +8.0972914e+01 </wgt>
<wgt id='1238'> +8.0772467e+01 </wgt>
<wgt id='1239'> +8.0804093e+01 </wgt>
<wgt id='1240'> +8.1028493e+01 </wgt>
<wgt id='1241'> +8.0510138e+01 </wgt>
<wgt id='1242'> +8.0468598e+01 </wgt>
<wgt id='1243'> +8.1291288e+01 </wgt>
<wgt id='1244'> +8.0628637e+01 </wgt>
<wgt id='1245'> +8.0992480e+01 </wgt>
<wgt id='1246'> +8.0858270e+01 </wgt>
<wgt id='1247'> +8.1282505e+01 </wgt>
<wgt id='1248'> +7.9975243e+01 </wgt>
<wgt id='1249'> +8.0658153e+01 </wgt>
<wgt id='1250'> +8.0725782e+01 </wgt>
<wgt id='1251'> +7.9988859e+01 </wgt>
<wgt id='1252'> +7.9936968e+01 </wgt>
<wgt id='1253'> +8.0708980e+01 </wgt>
<wgt id='1254'> +8.0196408e+01 </wgt>
<wgt id='1255'> +8.0542917e+01 </wgt>
<wgt id='1256'> +8.0571546e+01 </wgt>
<wgt id='1257'> +8.0134555e+01 </wgt>
<wgt id='1258'> +8.0385739e+01 </wgt>
<wgt id='1259'> +8.1206852e+01 </wgt>
<wgt id='1260'> +8.0345459e+01 </wgt>
<wgt id='1261'> +8.0387815e+01 </wgt>
<wgt id='1262'> +8.0464840e+01 </wgt>
<wgt id='1263'> +8.0963761e+01 </wgt>
<wgt id='1264'> +8.0720965e+01 </wgt>
<wgt id='1265'> +8.0465756e+01 </wgt>
<wgt id='1266'> +8.1179500e+01 </wgt>
<wgt id='1267'> +8.1241511e+01 </wgt>
<wgt id='1268'> +8.0865052e+01 </wgt>
<wgt id='1269'> +8.0623179e+01 </wgt>
<wgt id='1270'> +8.0660845e+01 </wgt>
<wgt id='1271'> +8.0553381e+01 </wgt>
<wgt id='1272'> +8.0489552e+01 </wgt>
<wgt id='1273'> +8.0389671e+01 </wgt>
<wgt id='1274'> +8.0215562e+01 </wgt>
<wgt id='1275'> +8.0786870e+01 </wgt>
<wgt id='1276'> +8.0941707e+01 </wgt>
<wgt id='1277'> +8.0744539e+01 </wgt>
<wgt id='1278'> +8.0813022e+01 </wgt>
<wgt id='1279'> +8.1040246e+01 </wgt>
<wgt id='1280'> +8.0816984e+01 </wgt>
<wgt id='1281'> +8.0637891e+01 </wgt>
<wgt id='1282'> +8.0936005e+01 </wgt>
<wgt id='1283'> +8.0807452e+01 </wgt>
<wgt id='1284'> +8.0821616e+01 </wgt>
<wgt id='1285'> +8.0576825e+01 </wgt>
<wgt id='1286'> +8.0350224e+01 </wgt>
<wgt id='1287'> +8.0625659e+01 </wgt>
<wgt id='1288'> +8.0799309e+01 </wgt>
<wgt id='1289'> +8.0388372e+01 </wgt>
<wgt id='1290'> +8.0661952e+01 </wgt>
<wgt id='1291'> +8.0312647e+01 </wgt>
<wgt id='1292'> +8.0717009e+01 </wgt>
<wgt id='1293'> +8.0543405e+01 </wgt>
<wgt id='1294'> +8.0557368e+01 </wgt>
<wgt id='1295'> +8.0431794e+01 </wgt>
<wgt id='1296'> +8.0579368e+01 </wgt>
<wgt id='1297'> +8.0651680e+01 </wgt>
<wgt id='1298'> +8.0807841e+01 </wgt>
<wgt id='1299'> +8.0809786e+01 </wgt>
<wgt id='1300'> +8.0391274e+01 </wgt>
<wgt id='1301'> +8.0849922e+01 </wgt>
<wgt id='1302'> +8.0632479e+01 </wgt>
<wgt id='1303'> +8.1076345e+01 </wgt>
<wgt id='1304'> +8.0604434e+01 </wgt>
<wgt id='1305'> +8.0270748e+01 </wgt>
<wgt id='1306'> +8.0487318e+01 </wgt>
<wgt id='1307'> +8.0931762e+01 </wgt>
<wgt id='1308'> +8.0745625e+01 </wgt>
<wgt id='1309'> +8.0556939e+01 </wgt>
<wgt id='1310'> +8.0904478e+01 </wgt>
<wgt id='1311'> +8.0946005e+01 </wgt>
<wgt id='1312'> +8.0537212e+01 </wgt>
<wgt id='1313'> +8.0659794e+01 </wgt>
<wgt id='1314'> +8.0737802e+01 </wgt>
<wgt id='1315'> +8.0839076e+01 </wgt>
<wgt id='1316'> +8.0545753e+01 </wgt>
<wgt id='1317'> +8.1036854e+01 </wgt>
<wgt id='1318'> +8.1081596e+01 </wgt>
<wgt id='1319'> +1.0055294e+02 </wgt>
<wgt id='1320'> +7.6084272e+01 </wgt>
<wgt id='1321'> +7.6188648e+01 </wgt>
<wgt id='1322'> +7.7399286e+01 </wgt>
<wgt id='1323'> +7.5382811e+01 </wgt>
<wgt id='1324'> +7.7233668e+01 </wgt>
<wgt id='1325'> +7.8131605e+01 </wgt>
<wgt id='1326'> +7.5201600e+01 </wgt>
<wgt id='1327'> +7.6840771e+01 </wgt>
<wgt id='1328'> +7.5104220e+01 </wgt>
<wgt id='1329'> +7.5801285e+01 </wgt>
<wgt id='1330'> +7.6692671e+01 </wgt>
<wgt id='1331'> +7.2960913e+01 </wgt>
<wgt id='1332'> +7.8395708e+01 </wgt>
<wgt id='1333'> +7.6408726e+01 </wgt>
<wgt id='1334'> +7.4926994e+01 </wgt>
<wgt id='1335'> +7.8925569e+01 </wgt>
<wgt id='1336'> +7.2559759e+01 </wgt>
<wgt id='1337'> +7.8009036e+01 </wgt>
<wgt id='1338'> +7.3796144e+01 </wgt>
<wgt id='1339'> +7.5586783e+01 </wgt>
<wgt id='1340'> +7.6498152e+01 </wgt>
<wgt id='1341'> +7.6481247e+01 </wgt>
<wgt id='1342'> +7.5022307e+01 </wgt>
<wgt id='1343'> +7.5793698e+01 </wgt>
<wgt id='1344'> +7.6180925e+01 </wgt>
<wgt id='1345'> +7.5294052e+01 </wgt>
<wgt id='1346'> +7.6831585e+01 </wgt>
<wgt id='1347'> +7.5347582e+01 </wgt>
<wgt id='1348'> +7.7044728e+01 </wgt>
<wgt id='1349'> +7.2810213e+01 </wgt>
<wgt id='1350'> +7.7227132e+01 </wgt>
<wgt id='1351'> +7.6020916e+01 </wgt>
<wgt id='1352'> +7.6161445e+01 </wgt>
<wgt id='1353'> +7.6994998e+01 </wgt>
<wgt id='1354'> +7.3970198e+01 </wgt>
<wgt id='1355'> +7.6887396e+01 </wgt>
<wgt id='1356'> +7.5374350e+01 </wgt>
<wgt id='1357'> +7.5743365e+01 </wgt>
<wgt id='1358'> +7.6103709e+01 </wgt>
<wgt id='1359'> +7.3761829e+01 </wgt>
<wgt id='1360'> +7.7091756e+01 </wgt>
<wgt id='1361'> +7.4823115e+01 </wgt>
<wgt id='1362'> +7.7654675e+01 </wgt>
<wgt id='1363'> +7.5222054e+01 </wgt>
<wgt id='1364'> +7.6754034e+01 </wgt>
<wgt id='1365'> +7.6725150e+01 </wgt>
<wgt id='1366'> +7.6510007e+01 </wgt>
<wgt id='1367'> +7.4340097e+01 </wgt>
<wgt id='1368'> +7.6577156e+01 </wgt>
<wgt id='1369'> +7.6015597e+01 </wgt>
<wgt id='1370'> +7.6591839e+01 </wgt>
<wgt id='1371'> +7.4819709e+01 </wgt>
<wgt id='1372'> +7.4224135e+01 </wgt>
<wgt id='1373'> +7.5534242e+01 </wgt>
<wgt id='1374'> +7.4913435e+01 </wgt>
<wgt id='1375'> +7.4563956e+01 </wgt>
<wgt id='1376'> +7.9030592e+01 </wgt>
<wgt id='1377'> +7.4963989e+01 </wgt>
<wgt id='1378'> +7.7203639e+01 </wgt>
<wgt id='1379'> +7.6140459e+01 </wgt>
<wgt id='1380'> +7.5079921e+01 </wgt>
<wgt id='1381'> +7.7354542e+01 </wgt>
<wgt id='1382'> +7.7825593e+01 </wgt>
<wgt id='1383'> +7.9036876e+01 </wgt>
<wgt id='1384'> +8.0017837e+01 </wgt>
<wgt id='1385'> +8.4595147e+01 </wgt>
<wgt id='1386'> +8.4586918e+01 </wgt>
<wgt id='1387'> +8.4604697e+01 </wgt>
<wgt id='1388'> +8.4818790e+01 </wgt>
<wgt id='1389'> +8.4193227e+01 </wgt>
<wgt id='1390'> +8.4857983e+01 </wgt>
<wgt id='1391'> +8.4267121e+01 </wgt>
<wgt id='1392'> +8.4963056e+01 </wgt>
<wgt id='1393'> +8.4335724e+01 </wgt>
<wgt id='1394'> +8.4356922e+01 </wgt>
<wgt id='1395'> +8.4876459e+01 </wgt>
<wgt id='1396'> +8.3562803e+01 </wgt>
<wgt id='1397'> +8.5127266e+01 </wgt>
<wgt id='1398'> +8.4241632e+01 </wgt>
<wgt id='1399'> +8.4854078e+01 </wgt>
<wgt id='1400'> +8.5232109e+01 </wgt>
<wgt id='1401'> +8.4096066e+01 </wgt>
<wgt id='1402'> +8.5471174e+01 </wgt>
<wgt id='1403'> +8.4190232e+01 </wgt>
<wgt id='1404'> +8.6612898e+01 </wgt>
<wgt id='1405'> +8.3586752e+01 </wgt>
<wgt id='1406'> +8.4522223e+01 </wgt>
<wgt id='1407'> +8.4701807e+01 </wgt>
<wgt id='1408'> +8.3880537e+01 </wgt>
<wgt id='1409'> +8.6023291e+01 </wgt>
<wgt id='1410'> +8.4918406e+01 </wgt>
<wgt id='1411'> +8.3726341e+01 </wgt>
<wgt id='1412'> +8.4424109e+01 </wgt>
<wgt id='1413'> +8.4559727e+01 </wgt>
<wgt id='1414'> +8.4808702e+01 </wgt>
<wgt id='1415'> +8.4444228e+01 </wgt>
<wgt id='1416'> +8.4177281e+01 </wgt>
<wgt id='1417'> +8.5213663e+01 </wgt>
<wgt id='1418'> +8.4298813e+01 </wgt>
<wgt id='1419'> +8.5278673e+01 </wgt>
<wgt id='1420'> +8.4352969e+01 </wgt>
<wgt id='1421'> +8.4438222e+01 </wgt>
<wgt id='1422'> +8.4051763e+01 </wgt>
<wgt id='1423'> +8.5318157e+01 </wgt>
<wgt id='1424'> +8.5330496e+01 </wgt>
<wgt id='1425'> +8.3190322e+01 </wgt>
<wgt id='1426'> +8.5526843e+01 </wgt>
<wgt id='1427'> +8.4264947e+01 </wgt>
<wgt id='1428'> +8.3400179e+01 </wgt>
<wgt id='1429'> +8.3893395e+01 </wgt>
<wgt id='1430'> +8.5190434e+01 </wgt>
<wgt id='1431'> +8.4952531e+01 </wgt>
<wgt id='1432'> +8.4929855e+01 </wgt>
<wgt id='1433'> +8.5320899e+01 </wgt>
<wgt id='1434'> +8.5882710e+01 </wgt>
<wgt id='1435'> +8.6285850e+01 </wgt>
<wgt id='1436'> +7.5329579e+01 </wgt>
<wgt id='1437'> +7.5490499e+01 </wgt>
<wgt id='1438'> +7.4952595e+01 </wgt>
<wgt id='1439'> +7.5333590e+01 </wgt>
<wgt id='1440'> +7.5238202e+01 </wgt>
<wgt id='1441'> +7.5745464e+01 </wgt>
<wgt id='1442'> +7.5318805e+01 </wgt>
<wgt id='1443'> +7.5724663e+01 </wgt>
<wgt id='1444'> +7.5184548e+01 </wgt>
<wgt id='1445'> +7.5109789e+01 </wgt>
<wgt id='1446'> +7.5512691e+01 </wgt>
<wgt id='1447'> +7.5442399e+01 </wgt>
<wgt id='1448'> +7.5158946e+01 </wgt>
<wgt id='1449'> +7.5984309e+01 </wgt>
<wgt id='1450'> +7.5343093e+01 </wgt>
<wgt id='1451'> +7.5368772e+01 </wgt>
<wgt id='1452'> +7.5227080e+01 </wgt>
<wgt id='1453'> +7.5649926e+01 </wgt>
<wgt id='1454'> +7.5441140e+01 </wgt>
<wgt id='1455'> +7.5555349e+01 </wgt>
<wgt id='1456'> +7.6036947e+01 </wgt>
<wgt id='1457'> +7.5327420e+01 </wgt>
<wgt id='1458'> +7.4970797e+01 </wgt>
<wgt id='1459'> +7.6252836e+01 </wgt>
<wgt id='1460'> +7.5472201e+01 </wgt>
<wgt id='1461'> +7.4443694e+01 </wgt>
<wgt id='1462'> +7.6243606e+01 </wgt>
<wgt id='1463'> +7.3586178e+01 </wgt>
<wgt id='1464'> +7.4963267e+01 </wgt>
<wgt id='1465'> +7.6885354e+01 </wgt>
<wgt id='1466'> +7.6922143e+01 </wgt>
<wgt id='1467'> +7.7250914e+01 </wgt>
<wgt id='1468'> +7.6609067e+01 </wgt>
<wgt id='1469'> +7.8418413e+01 </wgt>
<wgt id='1470'> +7.6754983e+01 </wgt>
<wgt id='1471'> +7.6840496e+01 </wgt>
<wgt id='1472'> +7.6494243e+01 </wgt>
<wgt id='1473'> +7.7408123e+01 </wgt>
<wgt id='1474'> +7.7490338e+01 </wgt>
<wgt id='1475'> +7.6979629e+01 </wgt>
<wgt id='1476'> +7.7532843e+01 </wgt>
<wgt id='1477'> +7.6417547e+01 </wgt>
<wgt id='1478'> +7.7154653e+01 </wgt>
<wgt id='1479'> +7.5912632e+01 </wgt>
<wgt id='1480'> +7.6999367e+01 </wgt>
<wgt id='1481'> +7.7034229e+01 </wgt>
<wgt id='1482'> +7.6417140e+01 </wgt>
<wgt id='1483'> +7.7828239e+01 </wgt>
<wgt id='1484'> +7.7314880e+01 </wgt>
<wgt id='1485'> +7.6467314e+01 </wgt>
<wgt id='1486'> +7.7282568e+01 </wgt>
<wgt id='1487'> +7.6660134e+01 </wgt>
<wgt id='1488'> +7.7155640e+01 </wgt>
<wgt id='1489'> +7.7483746e+01 </wgt>
<wgt id='1490'> +7.6722901e+01 </wgt>
<wgt id='1491'> +7.5540608e+01 </wgt>
<wgt id='1492'> +7.6535220e+01 </wgt>
<wgt id='1493'> +7.7917020e+01 </wgt>
<wgt id='1494'> +7.6034086e+01 </wgt>
<wgt id='1495'> +7.6924807e+01 </wgt>
<wgt id='1496'> +7.7843133e+01 </wgt>
<wgt id='1497'> +7.6689918e+01 </wgt>
<wgt id='1498'> +7.7188916e+01 </wgt>
<wgt id='1499'> +7.7471687e+01 </wgt>
<wgt id='1500'> +7.7141662e+01 </wgt>
<wgt id='1501'> +7.7220711e+01 </wgt>
<wgt id='1502'> +7.6872282e+01 </wgt>
<wgt id='1503'> +7.7244850e+01 </wgt>
<wgt id='1504'> +7.7054744e+01 </wgt>
<wgt id='1505'> +7.7342848e+01 </wgt>
<wgt id='1506'> +7.6988224e+01 </wgt>
<wgt id='1507'> +7.6981262e+01 </wgt>
<wgt id='1508'> +7.7426859e+01 </wgt>
<wgt id='1509'> +7.6855705e+01 </wgt>
<wgt id='1510'> +7.6728714e+01 </wgt>
<wgt id='1511'> +7.7357478e+01 </wgt>
<wgt id='1512'> +7.6999756e+01 </wgt>
<wgt id='1513'> +7.6841599e+01 </wgt>
<wgt id='1514'> +7.7008353e+01 </wgt>
<wgt id='1515'> +7.6851337e+01 </wgt>
<wgt id='1516'> +7.6949002e+01 </wgt>
<wgt id='1517'> +7.7203595e+01 </wgt>
<wgt id='1518'> +7.7033154e+01 </wgt>
<wgt id='1519'> +7.6765788e+01 </wgt>
<wgt id='1520'> +7.6811037e+01 </wgt>
<wgt id='1521'> +7.6962270e+01 </wgt>
<wgt id='1522'> +7.6924676e+01 </wgt>
<wgt id='1523'> +7.7157886e+01 </wgt>
<wgt id='1524'> +7.6719134e+01 </wgt>
<wgt id='1525'> +7.6365987e+01 </wgt>
<wgt id='1526'> +7.7023297e+01 </wgt>
<wgt id='1527'> +7.7016466e+01 </wgt>
<wgt id='1528'> +7.6543265e+01 </wgt>
<wgt id='1529'> +7.6448409e+01 </wgt>
<wgt id='1530'> +7.6807034e+01 </wgt>
<wgt id='1531'> +7.6961312e+01 </wgt>
<wgt id='1532'> +7.6451614e+01 </wgt>
<wgt id='1533'> +7.6847059e+01 </wgt>
<wgt id='1534'> +7.7003521e+01 </wgt>
<wgt id='1535'> +7.6999474e+01 </wgt>
<wgt id='1536'> +7.6747849e+01 </wgt>
<wgt id='1537'> +7.6847719e+01 </wgt>
<wgt id='1538'> +7.7100123e+01 </wgt>
<wgt id='1539'> +7.7368725e+01 </wgt>
<wgt id='1540'> +7.6794213e+01 </wgt>
<wgt id='1541'> +7.6960621e+01 </wgt>
<wgt id='1542'> +7.6955629e+01 </wgt>
<wgt id='1543'> +7.7123893e+01 </wgt>
<wgt id='1544'> +7.6535407e+01 </wgt>
<wgt id='1545'> +7.7280235e+01 </wgt>
<wgt id='1546'> +7.7469456e+01 </wgt>
<wgt id='1547'> +7.7352272e+01 </wgt>
<wgt id='1548'> +7.6750746e+01 </wgt>
<wgt id='1549'> +7.7128694e+01 </wgt>
<wgt id='1550'> +7.7068691e+01 </wgt>
<wgt id='1551'> +7.6665824e+01 </wgt>
<wgt id='1552'> +7.7190196e+01 </wgt>
<wgt id='1553'> +7.6834391e+01 </wgt>
<wgt id='1554'> +7.6905303e+01 </wgt>
<wgt id='1555'> +7.6739358e+01 </wgt>
<wgt id='1556'> +7.7024895e+01 </wgt>
<wgt id='1557'> +7.6749702e+01 </wgt>
<wgt id='1558'> +7.6974663e+01 </wgt>
<wgt id='1559'> +7.6747981e+01 </wgt>
<wgt id='1560'> +7.6893511e+01 </wgt>
<wgt id='1561'> +7.6903763e+01 </wgt>
<wgt id='1562'> +7.6929286e+01 </wgt>
<wgt id='1563'> +7.7021810e+01 </wgt>
<wgt id='1564'> +7.6832361e+01 </wgt>
<wgt id='1565'> +7.7014771e+01 </wgt>
<wgt id='1566'> +7.6933869e+01 </wgt>
<wgt id='1567'> +7.6020210e+01 </wgt>
<wgt id='1568'> +7.7721098e+01 </wgt>
<wgt id='1569'> +7.7583680e+01 </wgt>
<wgt id='1570'> +7.8074000e+01 </wgt>
<wgt id='1571'> +7.7385619e+01 </wgt>
<wgt id='1572'> +7.8002076e+01 </wgt>
<wgt id='1573'> +7.8619864e+01 </wgt>
<wgt id='1574'> +7.8261229e+01 </wgt>
<wgt id='1575'> +7.7895497e+01 </wgt>
<wgt id='1576'> +7.7938706e+01 </wgt>
<wgt id='1577'> +7.7714778e+01 </wgt>
<wgt id='1578'> +7.7580924e+01 </wgt>
<wgt id='1579'> +7.7400514e+01 </wgt>
<wgt id='1580'> +7.7951907e+01 </wgt>
<wgt id='1581'> +7.7375002e+01 </wgt>
<wgt id='1582'> +7.7581120e+01 </wgt>
<wgt id='1583'> +7.7528145e+01 </wgt>
<wgt id='1584'> +7.8956909e+01 </wgt>
<wgt id='1585'> +7.7001553e+01 </wgt>
<wgt id='1586'> +7.7638345e+01 </wgt>
<wgt id='1587'> +7.8370624e+01 </wgt>
<wgt id='1588'> +7.6440355e+01 </wgt>
<wgt id='1589'> +7.6947013e+01 </wgt>
<wgt id='1590'> +7.7989494e+01 </wgt>
<wgt id='1591'> +7.6933092e+01 </wgt>
<wgt id='1592'> +7.7466064e+01 </wgt>
<wgt id='1593'> +7.8011334e+01 </wgt>
<wgt id='1594'> +7.7958494e+01 </wgt>
<wgt id='1595'> +7.7455155e+01 </wgt>
<wgt id='1596'> +7.7365727e+01 </wgt>
<wgt id='1597'> +7.7438943e+01 </wgt>
<wgt id='1598'> +7.7463901e+01 </wgt>
<wgt id='1599'> +7.7518001e+01 </wgt>
<wgt id='1600'> +7.6595765e+01 </wgt>
<wgt id='1601'> +7.7543844e+01 </wgt>
<wgt id='1602'> +7.6543963e+01 </wgt>
<wgt id='1603'> +7.7036316e+01 </wgt>
<wgt id='1604'> +7.7943352e+01 </wgt>
<wgt id='1605'> +7.7848764e+01 </wgt>
<wgt id='1606'> +7.7337422e+01 </wgt>
<wgt id='1607'> +7.7438961e+01 </wgt>
<wgt id='1608'> +7.8017886e+01 </wgt>
<wgt id='1609'> +7.7225770e+01 </wgt>
<wgt id='1610'> +7.7466348e+01 </wgt>
<wgt id='1611'> +7.7206483e+01 </wgt>
<wgt id='1612'> +7.7439403e+01 </wgt>
<wgt id='1613'> +7.7431182e+01 </wgt>
<wgt id='1614'> +7.8055296e+01 </wgt>
<wgt id='1615'> +7.7511588e+01 </wgt>
<wgt id='1616'> +7.7582827e+01 </wgt>
<wgt id='1617'> +7.7375950e+01 </wgt>
<wgt id='1618'> +7.7876641e+01 </wgt>
<wgt id='1619'> +7.7552072e+01 </wgt>
<wgt id='1620'> +7.7821922e+01 </wgt>
<wgt id='1621'> +7.7875488e+01 </wgt>
<wgt id='1622'> +7.7666776e+01 </wgt>
<wgt id='1623'> +7.7860492e+01 </wgt>
<wgt id='1624'> +7.7701715e+01 </wgt>
<wgt id='1625'> +7.7583472e+01 </wgt>
<wgt id='1626'> +7.7192109e+01 </wgt>
<wgt id='1627'> +7.7881465e+01 </wgt>
<wgt id='1628'> +7.7740958e+01 </wgt>
<wgt id='1629'> +7.7986723e+01 </wgt>
<wgt id='1630'> +7.7149947e+01 </wgt>
<wgt id='1631'> +7.7578275e+01 </wgt>
<wgt id='1632'> +7.7694177e+01 </wgt>
<wgt id='1633'> +7.7151022e+01 </wgt>
<wgt id='1634'> +7.8284125e+01 </wgt>
<wgt id='1635'> +7.7265208e+01 </wgt>
<wgt id='1636'> +7.7810909e+01 </wgt>
<wgt id='1637'> +7.8178573e+01 </wgt>
<wgt id='1638'> +7.7507786e+01 </wgt>
<wgt id='1639'> +7.7794418e+01 </wgt>
<wgt id='1640'> +7.7711190e+01 </wgt>
<wgt id='1641'> +7.8054070e+01 </wgt>
<wgt id='1642'> +7.7610857e+01 </wgt>
<wgt id='1643'> +7.7417274e+01 </wgt>
<wgt id='1644'> +7.7458191e+01 </wgt>
<wgt id='1645'> +7.7445032e+01 </wgt>
<wgt id='1646'> +7.7368799e+01 </wgt>
<wgt id='1647'> +7.7351402e+01 </wgt>
<wgt id='1648'> +7.7842925e+01 </wgt>
<wgt id='1649'> +7.8053014e+01 </wgt>
<wgt id='1650'> +7.7523746e+01 </wgt>
<wgt id='1651'> +7.7878038e+01 </wgt>
<wgt id='1652'> +7.7005880e+01 </wgt>
<wgt id='1653'> +7.7419119e+01 </wgt>
<wgt id='1654'> +7.7575861e+01 </wgt>
<wgt id='1655'> +7.7419214e+01 </wgt>
<wgt id='1656'> +7.7476397e+01 </wgt>
<wgt id='1657'> +7.7483493e+01 </wgt>
<wgt id='1658'> +7.7448647e+01 </wgt>
<wgt id='1659'> +7.7623327e+01 </wgt>
<wgt id='1660'> +7.7515561e+01 </wgt>
<wgt id='1661'> +7.7565087e+01 </wgt>
<wgt id='1662'> +7.7571554e+01 </wgt>
<wgt id='1663'> +7.7416330e+01 </wgt>
<wgt id='1664'> +7.7589468e+01 </wgt>
<wgt id='1665'> +7.7710654e+01 </wgt>
<wgt id='1666'> +7.7567427e+01 </wgt>
<wgt id='1667'> +7.7423159e+01 </wgt>
<wgt id='1668'> +7.7505773e+01 </wgt>
<wgt id='1669'> +7.7588966e+01 </wgt>
<wgt id='1670'> +7.7141715e+01 </wgt>
<wgt id='1671'> +7.8383529e+01 </wgt>
<wgt id='1672'> +7.6922977e+01 </wgt>
<wgt id='1673'> +7.9145117e+01 </wgt>
<wgt id='1674'> +7.5990509e+01 </wgt>
<wgt id='1675'> +7.6959848e+01 </wgt>
<wgt id='1676'> +7.8009149e+01 </wgt>
<wgt id='1677'> +7.7105327e+01 </wgt>
<wgt id='1678'> +7.7764097e+01 </wgt>
<wgt id='1679'> +7.6969982e+01 </wgt>
<wgt id='1680'> +7.6741692e+01 </wgt>
<wgt id='1681'> +7.7466830e+01 </wgt>
<wgt id='1682'> +7.6897747e+01 </wgt>
<wgt id='1683'> +7.6186389e+01 </wgt>
<wgt id='1684'> +7.6169281e+01 </wgt>
<wgt id='1685'> +7.6646395e+01 </wgt>
<wgt id='1686'> +7.6530349e+01 </wgt>
<wgt id='1687'> +7.6543425e+01 </wgt>
<wgt id='1688'> +7.7318580e+01 </wgt>
<wgt id='1689'> +7.6023776e+01 </wgt>
<wgt id='1690'> +7.6703568e+01 </wgt>
<wgt id='1691'> +7.6517895e+01 </wgt>
<wgt id='1692'> +7.7486566e+01 </wgt>
<wgt id='1693'> +7.7039279e+01 </wgt>
<wgt id='1694'> +7.7013415e+01 </wgt>
<wgt id='1695'> +7.7003832e+01 </wgt>
<wgt id='1696'> +7.7616210e+01 </wgt>
<wgt id='1697'> +7.6709260e+01 </wgt>
<wgt id='1698'> +7.7201678e+01 </wgt>
<wgt id='1699'> +7.5581455e+01 </wgt>
<wgt id='1700'> +7.6914776e+01 </wgt>
<wgt id='1701'> +7.6631212e+01 </wgt>
<wgt id='1702'> +7.6912744e+01 </wgt>
<wgt id='1703'> +7.6020210e+01 </wgt>
<wgt id='1704'> +7.7721098e+01 </wgt>
<wgt id='1705'> +7.7584237e+01 </wgt>
<wgt id='1706'> +7.8295151e+01 </wgt>
<wgt id='1707'> +7.9088735e+01 </wgt>
<wgt id='1708'> +7.7574268e+01 </wgt>
<wgt id='1709'> +7.6396257e+01 </wgt>
<wgt id='1710'> +7.7864509e+01 </wgt>
<wgt id='1711'> +7.7571449e+01 </wgt>
<wgt id='1712'> +7.7375750e+01 </wgt>
<wgt id='1713'> +7.7995552e+01 </wgt>
<wgt id='1714'> +7.6322879e+01 </wgt>
<wgt id='1715'> +7.7923594e+01 </wgt>
<wgt id='1716'> +7.8597510e+01 </wgt>
<wgt id='1717'> +7.7389460e+01 </wgt>
<wgt id='1718'> +7.7856510e+01 </wgt>
<wgt id='1719'> +7.7602562e+01 </wgt>
<wgt id='1720'> +7.9104873e+01 </wgt>
<wgt id='1721'> +7.7739842e+01 </wgt>
<wgt id='1722'> +7.7368348e+01 </wgt>
<wgt id='1723'> +7.7630751e+01 </wgt>
<wgt id='1724'> +7.7565549e+01 </wgt>
<wgt id='1725'> +7.7776565e+01 </wgt>
<wgt id='1726'> +7.7437724e+01 </wgt>
<wgt id='1727'> +7.7645143e+01 </wgt>
<wgt id='1728'> +7.7551665e+01 </wgt>
<wgt id='1729'> +7.7240219e+01 </wgt>
<wgt id='1730'> +7.7577451e+01 </wgt>
<wgt id='1731'> +7.6160062e+01 </wgt>
<wgt id='1732'> +7.7714692e+01 </wgt>
<wgt id='1733'> +7.7198264e+01 </wgt>
<wgt id='1734'> +7.7625150e+01 </wgt>
<wgt id='1735'> +7.7433809e+01 </wgt>
<wgt id='1736'> +7.7141715e+01 </wgt>
<wgt id='1737'> +7.8383529e+01 </wgt>
<wgt id='1738'> +9.8319532e+01 </wgt>
<wgt id='1739'> +9.8681385e+01 </wgt>
<wgt id='1740'> +9.7959728e+01 </wgt>
<wgt id='1741'> +9.8052016e+01 </wgt>
<wgt id='1742'> +9.8585563e+01 </wgt>
<wgt id='1743'> +9.8478863e+01 </wgt>
<wgt id='1744'> +9.8160191e+01 </wgt>
<wgt id='1745'> +9.7150306e+01 </wgt>
<wgt id='1746'> +9.9473104e+01 </wgt>
<wgt id='1747'> +9.9049733e+01 </wgt>
<wgt id='1748'> +9.7590317e+01 </wgt>
<wgt id='1749'> +9.8910487e+01 </wgt>
<wgt id='1750'> +9.7670715e+01 </wgt>
<wgt id='1751'> +9.8723209e+01 </wgt>
<wgt id='1752'> +9.7907623e+01 </wgt>
<wgt id='1753'> +9.8579909e+01 </wgt>
<wgt id='1754'> +9.8244456e+01 </wgt>
<wgt id='1755'> +9.9338329e+01 </wgt>
<wgt id='1756'> +9.7143188e+01 </wgt>
<wgt id='1757'> +9.7993762e+01 </wgt>
<wgt id='1758'> +9.8716880e+01 </wgt>
<wgt id='1759'> +1.0217028e+02 </wgt>
<wgt id='1760'> +9.4578379e+01 </wgt>
<wgt id='1761'> +9.9052301e+01 </wgt>
<wgt id='1762'> +9.7278189e+01 </wgt>
<wgt id='1763'> +9.5190750e+01 </wgt>
<wgt id='1764'> +1.0170015e+02 </wgt>
<wgt id='1765'> +9.6923313e+01 </wgt>
<wgt id='1766'> +9.8582478e+01 </wgt>
<wgt id='1767'> +9.8319532e+01 </wgt>
<wgt id='1768'> +9.8624552e+01 </wgt>
<wgt id='1769'> +9.8049048e+01 </wgt>
<wgt id='1770'> +9.8662958e+01 </wgt>
<wgt id='1771'> +9.8128946e+01 </wgt>
<wgt id='1772'> +9.7471646e+01 </wgt>
<wgt id='1773'> +9.7877934e+01 </wgt>
<wgt id='1774'> +9.8005544e+01 </wgt>
<wgt id='1775'> +9.8649705e+01 </wgt>
<wgt id='1776'> +9.6926314e+01 </wgt>
<wgt id='1777'> +9.9768536e+01 </wgt>
<wgt id='1778'> +9.8553968e+01 </wgt>
<wgt id='1779'> +9.9533940e+01 </wgt>
<wgt id='1780'> +9.2108503e+01 </wgt>
<wgt id='1781'> +8.4969789e+01 </wgt>
<wgt id='1782'> +8.5198025e+01 </wgt>
<wgt id='1783'> +8.4725351e+01 </wgt>
<wgt id='1784'> +8.4785821e+01 </wgt>
<wgt id='1785'> +8.5135586e+01 </wgt>
<wgt id='1786'> +8.5057738e+01 </wgt>
<wgt id='1787'> +8.4864668e+01 </wgt>
<wgt id='1788'> +8.3955123e+01 </wgt>
<wgt id='1789'> +8.5947407e+01 </wgt>
<wgt id='1790'> +8.5446285e+01 </wgt>
<wgt id='1791'> +8.4467678e+01 </wgt>
<wgt id='1792'> +8.4974591e+01 </wgt>
<wgt id='1793'> +8.4948370e+01 </wgt>
<wgt id='1794'> +8.4865068e+01 </wgt>
<wgt id='1795'> +8.5064308e+01 </wgt>
<wgt id='1796'> +8.5117833e+01 </wgt>
<wgt id='1797'> +8.4997327e+01 </wgt>
<wgt id='1798'> +8.3649239e+01 </wgt>
<wgt id='1799'> +8.6284275e+01 </wgt>
<wgt id='1800'> +8.6225216e+01 </wgt>
<wgt id='1801'> +8.3713810e+01 </wgt>
<wgt id='1802'> +8.1902149e+01 </wgt>
<wgt id='1803'> +8.8146739e+01 </wgt>
<wgt id='1804'> +8.1624076e+01 </wgt>
<wgt id='1805'> +8.8482337e+01 </wgt>
<wgt id='1806'> +8.4944043e+01 </wgt>
<wgt id='1807'> +8.4472201e+01 </wgt>
<wgt id='1808'> +8.4745499e+01 </wgt>
<wgt id='1809'> +8.3582182e+01 </wgt>
<wgt id='1810'> +8.4971553e+01 </wgt>
<wgt id='1811'> +8.4721566e+01 </wgt>
<wgt id='1812'> +8.6247014e+01 </wgt>
<wgt id='1813'> +8.4824432e+01 </wgt>
<wgt id='1814'> +8.5380594e+01 </wgt>
<wgt id='1815'> +7.7705229e+01 </wgt>
<wgt id='1816'> +9.0373726e+01 </wgt>
<wgt id='1817'> +8.4675917e+01 </wgt>
<wgt id='1818'> +8.5185787e+01 </wgt>
<wgt id='1819'> +8.5938851e+01 </wgt>
<wgt id='1820'> +8.1791323e+01 </wgt>
<wgt id='1821'> +8.7592523e+01 </wgt>
<wgt id='1822'> +8.6018348e+01 </wgt>
<wgt id='1823'> +9.0824221e+01 </wgt>
<wgt id='1824'> +7.4746482e+01 </wgt>
<wgt id='1825'> +7.4705452e+01 </wgt>
<wgt id='1826'> +7.4664504e+01 </wgt>
<wgt id='1827'> +7.4623767e+01 </wgt>
<wgt id='1828'> +7.4582791e+01 </wgt>
<wgt id='1829'> +7.4542141e+01 </wgt>
<wgt id='1830'> +7.4501204e+01 </wgt>
<wgt id='1831'> +7.4460549e+01 </wgt>
<wgt id='1832'> +7.4419633e+01 </wgt>
<wgt id='1833'> +7.4378741e+01 </wgt>
<wgt id='1834'> +7.4338045e+01 </wgt>
<wgt id='1835'> +7.4297223e+01 </wgt>
<wgt id='1836'> +7.4256596e+01 </wgt>
<wgt id='1837'> +7.4215749e+01 </wgt>
<wgt id='1838'> +7.4175157e+01 </wgt>
<wgt id='1839'> +7.4134221e+01 </wgt>
<wgt id='1840'> +7.4093410e+01 </wgt>
<wgt id='1841'> +7.4052835e+01 </wgt>
<wgt id='1842'> +7.4012095e+01 </wgt>
<wgt id='1843'> +7.3971543e+01 </wgt>
<wgt id='1844'> +7.3930715e+01 </wgt>
<wgt id='1845'> +7.3890155e+01 </wgt>
<wgt id='1846'> +7.3849420e+01 </wgt>
<wgt id='1847'> +7.3808631e+01 </wgt>
<wgt id='1848'> +7.3768224e+01 </wgt>
<wgt id='1849'> +7.3727412e+01 </wgt>
<wgt id='1850'> +7.3686903e+01 </wgt>
<wgt id='1851'> +7.3646178e+01 </wgt>
<wgt id='1852'> +7.3605731e+01 </wgt>
<wgt id='1853'> +7.3565019e+01 </wgt>
<wgt id='1854'> +7.3524369e+01 </wgt>
<wgt id='1855'> +7.6937474e+01 </wgt>
<wgt id='1856'> +7.7403530e+01 </wgt>
<wgt id='1857'> +7.6729685e+01 </wgt>
<wgt id='1858'> +7.7360106e+01 </wgt>
<wgt id='1859'> +7.7963484e+01 </wgt>
<wgt id='1860'> +7.7611515e+01 </wgt>
<wgt id='1861'> +7.7264320e+01 </wgt>
<wgt id='1862'> +7.7300292e+01 </wgt>
<wgt id='1863'> +7.7067766e+01 </wgt>
<wgt id='1864'> +7.6939016e+01 </wgt>
<wgt id='1865'> +7.6755149e+01 </wgt>
<wgt id='1866'> +7.7322016e+01 </wgt>
<wgt id='1867'> +7.6740782e+01 </wgt>
<wgt id='1868'> +7.6947311e+01 </wgt>
<wgt id='1869'> +7.6875718e+01 </wgt>
<wgt id='1870'> +7.8263871e+01 </wgt>
<wgt id='1871'> +7.6381356e+01 </wgt>
<wgt id='1872'> +7.6983974e+01 </wgt>
<wgt id='1873'> +7.7711801e+01 </wgt>
<wgt id='1874'> +7.5816234e+01 </wgt>
<wgt id='1875'> +7.6323769e+01 </wgt>
<wgt id='1876'> +7.7329911e+01 </wgt>
<wgt id='1877'> +7.6291769e+01 </wgt>
<wgt id='1878'> +7.6829583e+01 </wgt>
<wgt id='1879'> +7.7351647e+01 </wgt>
<wgt id='1880'> +7.7292569e+01 </wgt>
<wgt id='1881'> +7.6795403e+01 </wgt>
<wgt id='1882'> +7.6738597e+01 </wgt>
<wgt id='1883'> +7.6802492e+01 </wgt>
<wgt id='1884'> +7.6812938e+01 </wgt>
<wgt id='1885'> +7.6865785e+01 </wgt>
<wgt id='1886'> +7.5979465e+01 </wgt>
<wgt id='1887'> +7.6890079e+01 </wgt>
<wgt id='1888'> +7.5902502e+01 </wgt>
<wgt id='1889'> +7.6393814e+01 </wgt>
<wgt id='1890'> +7.7290304e+01 </wgt>
<wgt id='1891'> +7.7200698e+01 </wgt>
<wgt id='1892'> +7.6693047e+01 </wgt>
<wgt id='1893'> +7.6789933e+01 </wgt>
<wgt id='1894'> +7.7362104e+01 </wgt>
<wgt id='1895'> +7.6582528e+01 </wgt>
<wgt id='1896'> +7.6816410e+01 </wgt>
<wgt id='1897'> +7.6559128e+01 </wgt>
<wgt id='1898'> +7.6805432e+01 </wgt>
<wgt id='1899'> +7.6783801e+01 </wgt>
<wgt id='1900'> +7.7403154e+01 </wgt>
<wgt id='1901'> +7.6870518e+01 </wgt>
<wgt id='1902'> +7.6932583e+01 </wgt>
<wgt id='1903'> +7.6734684e+01 </wgt>
<wgt id='1904'> +7.7226594e+01 </wgt>
<wgt id='1905'> +7.6908345e+01 </wgt>
<wgt id='1906'> +7.7173754e+01 </wgt>
<wgt id='1907'> +7.7226436e+01 </wgt>
<wgt id='1908'> +7.7020268e+01 </wgt>
<wgt id='1909'> +7.7215723e+01 </wgt>
<wgt id='1910'> +7.7057435e+01 </wgt>
<wgt id='1911'> +7.6933060e+01 </wgt>
<wgt id='1912'> +7.6549264e+01 </wgt>
<wgt id='1913'> +7.7241240e+01 </wgt>
<wgt id='1914'> +7.7097851e+01 </wgt>
<wgt id='1915'> +7.7340563e+01 </wgt>
<wgt id='1916'> +7.6508886e+01 </wgt>
<wgt id='1917'> +7.6930741e+01 </wgt>
<wgt id='1918'> +7.7044467e+01 </wgt>
<wgt id='1919'> +7.6510560e+01 </wgt>
<wgt id='1920'> +7.7630476e+01 </wgt>
<wgt id='1921'> +7.6622379e+01 </wgt>
<wgt id='1922'> +7.7160849e+01 </wgt>
<wgt id='1923'> +7.7529111e+01 </wgt>
<wgt id='1924'> +7.6858140e+01 </wgt>
<wgt id='1925'> +7.7145682e+01 </wgt>
<wgt id='1926'> +7.7065192e+01 </wgt>
<wgt id='1927'> +7.7402202e+01 </wgt>
<wgt id='1928'> +7.6963450e+01 </wgt>
<wgt id='1929'> +7.6771656e+01 </wgt>
<wgt id='1930'> +7.6812318e+01 </wgt>
<wgt id='1931'> +7.6803950e+01 </wgt>
<wgt id='1932'> +7.6725014e+01 </wgt>
<wgt id='1933'> +7.6708640e+01 </wgt>
<wgt id='1934'> +7.7197533e+01 </wgt>
<wgt id='1935'> +7.7399922e+01 </wgt>
<wgt id='1936'> +7.6881708e+01 </wgt>
<wgt id='1937'> +7.7233305e+01 </wgt>
<wgt id='1938'> +7.6361875e+01 </wgt>
<wgt id='1939'> +7.6772965e+01 </wgt>
<wgt id='1940'> +7.6931394e+01 </wgt>
<wgt id='1941'> +7.6778785e+01 </wgt>
<wgt id='1942'> +7.6829280e+01 </wgt>
<wgt id='1943'> +7.6834814e+01 </wgt>
<wgt id='1944'> +7.6800026e+01 </wgt>
<wgt id='1945'> +7.6975483e+01 </wgt>
<wgt id='1946'> +7.6867247e+01 </wgt>
<wgt id='1947'> +7.6918135e+01 </wgt>
<wgt id='1948'> +7.6924832e+01 </wgt>
<wgt id='1949'> +7.6770197e+01 </wgt>
<wgt id='1950'> +7.6943508e+01 </wgt>
<wgt id='1951'> +7.7063002e+01 </wgt>
<wgt id='1952'> +7.6922577e+01 </wgt>
<wgt id='1953'> +7.6778289e+01 </wgt>
<wgt id='1954'> +7.6861421e+01 </wgt>
<wgt id='1955'> +7.6944055e+01 </wgt>
<wgt id='1956'> +7.6937190e+01 </wgt>
<wgt id='1957'> +7.6939001e+01 </wgt>
<wgt id='1958'> +7.6937767e+01 </wgt>
<wgt id='1959'> +7.6937824e+01 </wgt>
<wgt id='1960'> +7.6938343e+01 </wgt>
<wgt id='1961'> +7.6937598e+01 </wgt>
<wgt id='1962'> +7.6939271e+01 </wgt>
</rwgt>
</event>
<event npLO=" -1 " npNLO=" 0 ">
 6      0 +1.5146096e+02 4.12945520e+01 7.54677110e-03 1.15670720e-01
        4 -1    0    0  501    0 +0.0000000000e+00 +0.0000000000e+00 +8.4705726000e+00 8.4705726000e+00 0.0000000000e+00 0.0000e+00 9.0000e+00
       -4 -1    0    0    0  501 +0.0000000000e+00 +0.0000000000e+00 -2.0184503000e+02 2.0184503000e+02 0.0000000000e+00 0.0000e+00 9.0000e+00
       23  2    1    2    0    0 +0.0000000000e+00 +3.5527137000e-15 -1.9337446000e+02 2.1031561000e+02 8.2698077000e+01 0.0000e+00 0.0000e+00
       13  1    3    3    0    0 -3.6159309000e+01 -1.9936787000e+01 -9.1999334000e+01 1.0084071000e+02 0.0000000000e+00 0.0000e+00 9.0000e+00
      -13  1    3    3    0    0 +1.7707157000e+01 +9.3444500000e+00 -4.7129753000e+01 5.1206209000e+01 0.0000000000e+00 0.0000e+00 9.0000e+00
       22  1    3    3    0    0 +1.8452151000e+01 +1.0592337000e+01 -5.4245373000e+01 5.8268688000e+01 0.0000000000e+00 0.0000e+00 9.0000e+00
#aMCatNLO 1  0  0  2  2 0.67025410E+02 0.00000000E+00 -9  6  0 0.00000000E+00 0.00000000E+00 0.00000000E+00 0.00000000E+00 0.00000000E+00
<rwgt>
<wgt id='1001'> +1.5146000e+02 </wgt>
<wgt id='1002'> +1.5146000e+02 </wgt>
<wgt id='1003'> +1.3777000e+02 </wgt>
<wgt id='1004'> +1.4954000e+02 </wgt>
<wgt id='1005'> +1.5401000e+02 </wgt>
<wgt id='1006'> +1.4916000e+02 </wgt>
<wgt id='1007'> +1.3304000e+02 </wgt>
<wgt id='1008'> +1.5563000e+02 </wgt>
<wgt id='1009'> +1.5232000e+02 </wgt>
<wgt id='1010'> +1.5313000e+02 </wgt>
<wgt id='1011'> +1.5394000e+02 </wgt>
<wgt id='1012'> +1.4591000e+02 </wgt>
<wgt id='1013'> +1.4448000e+02 </wgt>
<wgt id='1014'> +1.5529000e+02 </wgt>
<wgt id='1015'> +1.5358000e+02 </wgt>
<wgt id='1016'> +1.4696000e+02 </wgt>
<wgt id='1017'> +1.5373000e+02 </wgt>
<wgt id='1018'> +1.5293000e+02 </wgt>
<wgt id='1019'> +1.4762000e+02 </wgt>
<wgt id='1020'> +1.4934000e+02 </wgt>
<wgt id='1021'> +1.5532000e+02 </wgt>
<wgt id='1022'> +1.5698000e+02 </wgt>
<wgt id='1023'> +1.5389000e+02 </wgt>
<wgt id='1024'> +1.5140000e+02 </wgt>
<wgt id='1025'> +1.6678000e+02 </wgt>
<wgt id='1026'> +1.5476000e+02 </wgt>
<wgt id='1027'> +1.5249000e+02 </wgt>
<wgt id='1028'> +1.5047000e+02 </wgt>
<wgt id='1029'> +1.4568000e+02 </wgt>
<wgt id='1030'> +1.4882000e+02 </wgt>
<wgt id='1031'> +1.5200000e+02 </wgt>
<wgt id='1032'> +1.5791000e+02 </wgt>
<wgt id='1033'> +1.5249000e+02 </wgt>
<wgt id='1034'> +1.4552000e+02 </wgt>
<wgt id='1035'> +1.4975000e+02 </wgt>
<wgt id='1036'> +1.5485000e+02 </wgt>
<wgt id='1037'> +1.5424000e+02 </wgt>
<wgt id='1038'> +1.5340000e+02 </wgt>
<wgt id='1039'> +1.5417000e+02 </wgt>
<wgt id='1040'> +1.5309000e+02 </wgt>
<wgt id='1041'> +1.4740000e+02 </wgt>
<wgt id='1042'> +1.5396000e+02 </wgt>
<wgt id='1043'> +1.5253000e+02 </wgt>
<wgt id='1044'> +1.5094000e+02 </wgt>
<wgt id='1045'> +1.5466000e+02 </wgt>
<wgt id='1046'> +1.5284000e+02 </wgt>
<wgt id='1047'> +1.5229000e+02 </wgt>
<wgt id='1048'> +1.5699000e+02 </wgt>
<wgt id='1049'> +1.4812000e+02 </wgt>
<wgt id='1050'> +1.4942000e+02 </wgt>
<wgt id='1051'> +1.4836000e+02 </wgt>
<wgt id='1052'> +1.5070000e+02 </wgt>
<wgt id='1053'> +1.5221000e+02 </wgt>
<wgt id='1054'> +1.4983000e+02 </wgt>
<wgt id='1055'> +1.5553000e+02 </wgt>
<wgt id='1056'> +1.5115000e+02 </wgt>
<wgt id='1057'> +1.4945000e+02 </wgt>
<wgt id='1058'> +1.4772000e+02 </wgt>
<wgt id='1059'> +1.5468000e+02 </wgt>
<wgt id='1060'> +1.4957000e+02 </wgt>
<wgt id='1061'> +1.5502000e+02 </wgt>
<wgt id='1062'> +1.5090000e+02 </wgt>
<wgt id='1063'> +1.5076000e+02 </wgt>
<wgt id='1064'> +1.5369000e+02 </wgt>
<wgt id='1065'> +1.5268000e+02 </wgt>
<wgt id='1066'> +1.4584000e+02 </wgt>
<wgt id='1067'> +1.5281000e+02 </wgt>
<wgt id='1068'> +1.5369000e+02 </wgt>
<wgt id='1069'> +1.6291000e+02 </wgt>
<wgt id='1070'> +1.4875000e+02 </wgt>
<wgt id='1071'> +1.4457000e+02 </wgt>
<wgt id='1072'> +1.4968000e+02 </wgt>
<wgt id='1073'> +1.5314000e+02 </wgt>
<wgt id='1074'> +1.5328000e+02 </wgt>
<wgt id='1075'> +1.3761000e+02 </wgt>
<wgt id='1076'> +1.5396000e+02 </wgt>
<wgt id='1077'> +1.4924000e+02 </wgt>
<wgt id='1078'> +1.5059000e+02 </wgt>
<wgt id='1079'> +1.5441000e+02 </wgt>
<wgt id='1080'> +1.5557000e+02 </wgt>
<wgt id='1081'> +1.4898000e+02 </wgt>
<wgt id='1082'> +1.5133000e+02 </wgt>
<wgt id='1083'> +1.5360000e+02 </wgt>
<wgt id='1084'> +1.4857000e+02 </wgt>
<wgt id='1085'> +1.5541000e+02 </wgt>
<wgt id='1086'> +1.5070000e+02 </wgt>
<wgt id='1087'> +1.4727000e+02 </wgt>
<wgt id='1088'> +1.4959000e+02 </wgt>
<wgt id='1089'> +1.5127000e+02 </wgt>
<wgt id='1090'> +1.4986000e+02 </wgt>
<wgt id='1091'> +1.5709000e+02 </wgt>
<wgt id='1092'> +1.5081000e+02 </wgt>
<wgt id='1093'> +1.4948000e+02 </wgt>
<wgt id='1094'> +1.5277000e+02 </wgt>
<wgt id='1095'> +1.4980000e+02 </wgt>
<wgt id='1096'> +1.5588000e+02 </wgt>
<wgt id='1097'> +1.4659000e+02 </wgt>
<wgt id='1098'> +1.5404000e+02 </wgt>
<wgt id='1099'> +1.5058000e+02 </wgt>
<wgt id='1100'> +1.5737000e+02 </wgt>
<wgt id='1101'> +1.5348000e+02 </wgt>
<wgt id='1102'> +1.5316000e+02 </wgt>
<wgt id='1103'> +1.4867000e+02 </wgt>
<wgt id='1104'> +1.5348000e+02 </wgt>
<wgt id='1105'> +1.5146096e+02 </wgt>
<wgt id='1106'> +7.6785851e+01 </wgt>
<wgt id='1107'> +7.4418921e+01 </wgt>
<wgt id='1108'> +8.6395301e+01 </wgt>
<wgt id='1109'> +8.8001327e+01 </wgt>
<wgt id='1110'> +8.4399413e+01 </wgt>
<wgt id='1111'> +6.3942786e+01 </wgt>
<wgt id='1112'> +6.4479524e+01 </wgt>
<wgt id='1113'> +6.3275756e+01 </wgt>
<wgt id='1114'> +6.6308645e+01 </wgt>
<wgt id='1115'> +5.2092104e+01 </wgt>
<wgt id='1116'> +6.8830569e+01 </wgt>
<wgt id='1117'> +6.6749430e+01 </wgt>
<wgt id='1118'> +6.6621688e+01 </wgt>
<wgt id='1119'> +6.6205167e+01 </wgt>
<wgt id='1120'> +6.0120118e+01 </wgt>
<wgt id='1121'> +6.8283294e+01 </wgt>
<wgt id='1122'> +7.1662343e+01 </wgt>
<wgt id='1123'> +7.1530118e+01 </wgt>
<wgt id='1124'> +6.6166952e+01 </wgt>
<wgt id='1125'> +6.6695822e+01 </wgt>
<wgt id='1126'> +6.8185215e+01 </wgt>
<wgt id='1127'> +6.7332526e+01 </wgt>
<wgt id='1128'> +6.8598640e+01 </wgt>
<wgt id='1129'> +6.7036588e+01 </wgt>
<wgt id='1130'> +6.7064379e+01 </wgt>
<wgt id='1131'> +6.6743146e+01 </wgt>
<wgt id='1132'> +6.8713954e+01 </wgt>
<wgt id='1133'> +6.3960398e+01 </wgt>
<wgt id='1134'> +7.1124720e+01 </wgt>
<wgt id='1135'> +6.7259637e+01 </wgt>
<wgt id='1136'> +6.2488612e+01 </wgt>
<wgt id='1137'> +6.4481738e+01 </wgt>
<wgt id='1138'> +6.6396019e+01 </wgt>
<wgt id='1139'> +7.2427501e+01 </wgt>
<wgt id='1140'> +6.4661006e+01 </wgt>
<wgt id='1141'> +6.1095063e+01 </wgt>
<wgt id='1142'> +6.7481785e+01 </wgt>
<wgt id='1143'> +6.4167578e+01 </wgt>
<wgt id='1144'> +6.9246766e+01 </wgt>
<wgt id='1145'> +6.3514233e+01 </wgt>
<wgt id='1146'> +7.3163794e+01 </wgt>
<wgt id='1147'> +6.4045757e+01 </wgt>
<wgt id='1148'> +6.7104942e+01 </wgt>
<wgt id='1149'> +6.4103188e+01 </wgt>
<wgt id='1150'> +6.5070083e+01 </wgt>
<wgt id='1151'> +6.6357401e+01 </wgt>
<wgt id='1152'> +6.6688873e+01 </wgt>
<wgt id='1153'> +6.4408350e+01 </wgt>
<wgt id='1154'> +6.6373359e+01 </wgt>
<wgt id='1155'> +6.4830248e+01 </wgt>
<wgt id='1156'> +6.4978321e+01 </wgt>
<wgt id='1157'> +6.0820683e+01 </wgt>
<wgt id='1158'> +5.9151891e+01 </wgt>
<wgt id='1159'> +6.3556253e+01 </wgt>
<wgt id='1160'> +6.0253244e+01 </wgt>
<wgt id='1161'> +6.5189352e+01 </wgt>
<wgt id='1162'> +6.9678003e+01 </wgt>
<wgt id='1163'> +6.5595847e+01 </wgt>
<wgt id='1164'> +6.3221191e+01 </wgt>
<wgt id='1165'> +6.4058158e+01 </wgt>
<wgt id='1166'> +7.1305528e+01 </wgt>
<wgt id='1167'> +6.9503076e+01 </wgt>
<wgt id='1168'> +5.9972263e+01 </wgt>
<wgt id='1169'> +6.1903266e+01 </wgt>
<wgt id='1170'> +6.3950462e+01 </wgt>
<wgt id='1171'> +6.1446465e+01 </wgt>
<wgt id='1172'> +6.8070713e+01 </wgt>
<wgt id='1173'> +7.2474945e+01 </wgt>
<wgt id='1174'> +6.2019199e+01 </wgt>
<wgt id='1175'> +6.4686860e+01 </wgt>
<wgt id='1176'> +6.9331645e+01 </wgt>
<wgt id='1177'> +5.9939659e+01 </wgt>
<wgt id='1178'> +7.1972390e+01 </wgt>
<wgt id='1179'> +6.7700817e+01 </wgt>
<wgt id='1180'> +6.7642067e+01 </wgt>
<wgt id='1181'> +5.8980439e+01 </wgt>
<wgt id='1182'> +6.7977991e+01 </wgt>
<wgt id='1183'> +6.6448405e+01 </wgt>
<wgt id='1184'> +6.8496661e+01 </wgt>
<wgt id='1185'> +7.0105244e+01 </wgt>
<wgt id='1186'> +6.1229403e+01 </wgt>
<wgt id='1187'> +7.8135066e+01 </wgt>
<wgt id='1188'> +7.4692335e+01 </wgt>
<wgt id='1189'> +6.8487212e+01 </wgt>
<wgt id='1190'> +5.6306358e+01 </wgt>
<wgt id='1191'> +7.2421221e+01 </wgt>
<wgt id='1192'> +6.7784365e+01 </wgt>
<wgt id='1193'> +6.7371808e+01 </wgt>
<wgt id='1194'> +6.5689181e+01 </wgt>
<wgt id='1195'> +6.4734117e+01 </wgt>
<wgt id='1196'> +6.7064379e+01 </wgt>
<wgt id='1197'> +6.3201133e+01 </wgt>
<wgt id='1198'> +6.9675188e+01 </wgt>
<wgt id='1199'> +7.0851998e+01 </wgt>
<wgt id='1200'> +5.8430354e+01 </wgt>
<wgt id='1201'> +6.7015378e+01 </wgt>
<wgt id='1202'> +6.4982044e+01 </wgt>
<wgt id='1203'> +7.5619045e+01 </wgt>
<wgt id='1204'> +6.6720902e+01 </wgt>
<wgt id='1205'> +6.3450550e+01 </wgt>
<wgt id='1206'> +7.1307320e+01 </wgt>
<wgt id='1207'> +6.8312672e+01 </wgt>
<wgt id='1208'> +6.6734535e+01 </wgt>
<wgt id='1209'> +6.4755263e+01 </wgt>
<wgt id='1210'> +6.6290948e+01 </wgt>
<wgt id='1211'> +5.9007495e+01 </wgt>
<wgt id='1212'> +7.0876507e+01 </wgt>
<wgt id='1213'> +7.3272029e+01 </wgt>
<wgt id='1214'> +6.8310863e+01 </wgt>
<wgt id='1215'> +7.7544708e+01 </wgt>
<wgt id='1216'> +6.1119525e+01 </wgt>
<wgt id='1217'> +6.1276314e+01 </wgt>
<wgt id='1218'> +6.0841551e+01 </wgt>
<wgt id='1219'> +6.1341697e+01 </wgt>
<wgt id='1220'> +6.0803265e+01 </wgt>
<wgt id='1221'> +6.1276765e+01 </wgt>
<wgt id='1222'> +6.1104068e+01 </wgt>
<wgt id='1223'> +6.0792119e+01 </wgt>
<wgt id='1224'> +6.0886495e+01 </wgt>
<wgt id='1225'> +6.0356500e+01 </wgt>
<wgt id='1226'> +6.1350980e+01 </wgt>
<wgt id='1227'> +6.1343180e+01 </wgt>
<wgt id='1228'> +6.1444046e+01 </wgt>
<wgt id='1229'> +6.0420618e+01 </wgt>
<wgt id='1230'> +6.0841979e+01 </wgt>
<wgt id='1231'> +6.1682463e+01 </wgt>
<wgt id='1232'> +6.0711486e+01 </wgt>
<wgt id='1233'> +6.1911916e+01 </wgt>
<wgt id='1234'> +6.0942476e+01 </wgt>
<wgt id='1235'> +6.0922526e+01 </wgt>
<wgt id='1236'> +6.1513244e+01 </wgt>
<wgt id='1237'> +5.9841441e+01 </wgt>
<wgt id='1238'> +6.1107384e+01 </wgt>
<wgt id='1239'> +6.1085280e+01 </wgt>
<wgt id='1240'> +6.0062967e+01 </wgt>
<wgt id='1241'> +6.1729191e+01 </wgt>
<wgt id='1242'> +6.1368935e+01 </wgt>
<wgt id='1243'> +6.1059591e+01 </wgt>
<wgt id='1244'> +6.1189373e+01 </wgt>
<wgt id='1245'> +6.0092762e+01 </wgt>
<wgt id='1246'> +6.0673792e+01 </wgt>
<wgt id='1247'> +6.1207977e+01 </wgt>
<wgt id='1248'> +6.1586799e+01 </wgt>
<wgt id='1249'> +6.1086540e+01 </wgt>
<wgt id='1250'> +6.1206145e+01 </wgt>
<wgt id='1251'> +6.1379450e+01 </wgt>
<wgt id='1252'> +6.1462511e+01 </wgt>
<wgt id='1253'> +6.1288495e+01 </wgt>
<wgt id='1254'> +6.1540735e+01 </wgt>
<wgt id='1255'> +6.1408511e+01 </wgt>
<wgt id='1256'> +6.1064219e+01 </wgt>
<wgt id='1257'> +6.1922605e+01 </wgt>
<wgt id='1258'> +6.1429614e+01 </wgt>
<wgt id='1259'> +6.0712691e+01 </wgt>
<wgt id='1260'> +6.1570374e+01 </wgt>
<wgt id='1261'> +6.1045349e+01 </wgt>
<wgt id='1262'> +6.1127104e+01 </wgt>
<wgt id='1263'> +6.1218765e+01 </wgt>
<wgt id='1264'> +6.1122627e+01 </wgt>
<wgt id='1265'> +6.0763082e+01 </wgt>
<wgt id='1266'> +6.0950282e+01 </wgt>
<wgt id='1267'> +6.0814866e+01 </wgt>
<wgt id='1268'> +6.1550756e+01 </wgt>
<wgt id='1269'> +6.1315147e+01 </wgt>
<wgt id='1270'> +6.1288590e+01 </wgt>
<wgt id='1271'> +6.1135875e+01 </wgt>
<wgt id='1272'> +6.0666475e+01 </wgt>
<wgt id='1273'> +6.1546780e+01 </wgt>
<wgt id='1274'> +6.1301475e+01 </wgt>
<wgt id='1275'> +6.1024860e+01 </wgt>
<wgt id='1276'> +6.0761839e+01 </wgt>
<wgt id='1277'> +6.0854309e+01 </wgt>
<wgt id='1278'> +6.0693759e+01 </wgt>
<wgt id='1279'> +6.0657346e+01 </wgt>
<wgt id='1280'> +6.1059918e+01 </wgt>
<wgt id='1281'> +6.1027647e+01 </wgt>
<wgt id='1282'> +6.0781425e+01 </wgt>
<wgt id='1283'> +6.1590173e+01 </wgt>
<wgt id='1284'> +6.1354873e+01 </wgt>
<wgt id='1285'> +6.1569587e+01 </wgt>
<wgt id='1286'> +6.1399128e+01 </wgt>
<wgt id='1287'> +6.0962201e+01 </wgt>
<wgt id='1288'> +6.1027440e+01 </wgt>
<wgt id='1289'> +6.1372298e+01 </wgt>
<wgt id='1290'> +6.0640720e+01 </wgt>
<wgt id='1291'> +6.1257802e+01 </wgt>
<wgt id='1292'> +6.1095240e+01 </wgt>
<wgt id='1293'> +6.0803998e+01 </wgt>
<wgt id='1294'> +6.1121216e+01 </wgt>
<wgt id='1295'> +6.1290305e+01 </wgt>
<wgt id='1296'> +6.1191184e+01 </wgt>
<wgt id='1297'> +6.1272894e+01 </wgt>
<wgt id='1298'> +6.1272723e+01 </wgt>
<wgt id='1299'> +6.0942295e+01 </wgt>
<wgt id='1300'> +6.1172219e+01 </wgt>
<wgt id='1301'> +6.0997129e+01 </wgt>
<wgt id='1302'> +6.1287311e+01 </wgt>
<wgt id='1303'> +6.1357644e+01 </wgt>
<wgt id='1304'> +6.1248173e+01 </wgt>
<wgt id='1305'> +6.1270661e+01 </wgt>
<wgt id='1306'> +6.1062509e+01 </wgt>
<wgt id='1307'> +6.1222336e+01 </wgt>
<wgt id='1308'> +6.1152618e+01 </wgt>
<wgt id='1309'> +6.0859543e+01 </wgt>
<wgt id='1310'> +6.1203967e+01 </wgt>
<wgt id='1311'> +6.0989671e+01 </wgt>
<wgt id='1312'> +6.1016686e+01 </wgt>
<wgt id='1313'> +6.1040936e+01 </wgt>
<wgt id='1314'> +6.1399663e+01 </wgt>
<wgt id='1315'> +6.0832814e+01 </wgt>
<wgt id='1316'> +6.1180254e+01 </wgt>
<wgt id='1317'> +5.7858353e+01 </wgt>
<wgt id='1318'> +6.4703677e+01 </wgt>
<wgt id='1319'> +4.3657887e+01 </wgt>
<wgt id='1320'> +7.1737521e+01 </wgt>
<wgt id='1321'> +7.1774786e+01 </wgt>
<wgt id='1322'> +7.2001660e+01 </wgt>
<wgt id='1323'> +7.2590022e+01 </wgt>
<wgt id='1324'> +7.1436251e+01 </wgt>
<wgt id='1325'> +7.2205616e+01 </wgt>
<wgt id='1326'> +7.1335024e+01 </wgt>
<wgt id='1327'> +7.2377169e+01 </wgt>
<wgt id='1328'> +7.1758259e+01 </wgt>
<wgt id='1329'> +6.9624527e+01 </wgt>
<wgt id='1330'> +7.2882212e+01 </wgt>
<wgt id='1331'> +7.3090381e+01 </wgt>
<wgt id='1332'> +7.0965674e+01 </wgt>
<wgt id='1333'> +6.7488755e+01 </wgt>
<wgt id='1334'> +7.4239523e+01 </wgt>
<wgt id='1335'> +7.2699447e+01 </wgt>
<wgt id='1336'> +7.1112782e+01 </wgt>
<wgt id='1337'> +7.0639204e+01 </wgt>
<wgt id='1338'> +7.3038159e+01 </wgt>
<wgt id='1339'> +7.3229702e+01 </wgt>
<wgt id='1340'> +7.0067937e+01 </wgt>
<wgt id='1341'> +7.1992749e+01 </wgt>
<wgt id='1342'> +7.1170625e+01 </wgt>
<wgt id='1343'> +7.1037112e+01 </wgt>
<wgt id='1344'> +7.2362281e+01 </wgt>
<wgt id='1345'> +7.0523074e+01 </wgt>
<wgt id='1346'> +7.2859266e+01 </wgt>
<wgt id='1347'> +7.1285169e+01 </wgt>
<wgt id='1348'> +7.2345382e+01 </wgt>
<wgt id='1349'> +7.0845674e+01 </wgt>
<wgt id='1350'> +7.2045854e+01 </wgt>
<wgt id='1351'> +7.1915583e+01 </wgt>
<wgt id='1352'> +7.1504494e+01 </wgt>
<wgt id='1353'> +7.1603578e+01 </wgt>
<wgt id='1354'> +7.2019412e+01 </wgt>
<wgt id='1355'> +7.3410574e+01 </wgt>
<wgt id='1356'> +7.0152981e+01 </wgt>
<wgt id='1357'> +7.2746660e+01 </wgt>
<wgt id='1358'> +7.0088119e+01 </wgt>
<wgt id='1359'> +7.1781236e+01 </wgt>
<wgt id='1360'> +7.1558000e+01 </wgt>
<wgt id='1361'> +7.2371495e+01 </wgt>
<wgt id='1362'> +7.1187303e+01 </wgt>
<wgt id='1363'> +7.2455933e+01 </wgt>
<wgt id='1364'> +7.1284010e+01 </wgt>
<wgt id='1365'> +6.9846809e+01 </wgt>
<wgt id='1366'> +7.1684988e+01 </wgt>
<wgt id='1367'> +7.1181633e+01 </wgt>
<wgt id='1368'> +7.1378791e+01 </wgt>
<wgt id='1369'> +7.0910589e+01 </wgt>
<wgt id='1370'> +7.0816513e+01 </wgt>
<wgt id='1371'> +7.1496219e+01 </wgt>
<wgt id='1372'> +7.1646628e+01 </wgt>
<wgt id='1373'> +6.9930846e+01 </wgt>
<wgt id='1374'> +7.1454887e+01 </wgt>
<wgt id='1375'> +7.1154105e+01 </wgt>
<wgt id='1376'> +7.2608792e+01 </wgt>
<wgt id='1377'> +6.9052131e+01 </wgt>
<wgt id='1378'> +7.4251352e+01 </wgt>
<wgt id='1379'> +7.3442479e+01 </wgt>
<wgt id='1380'> +7.1035788e+01 </wgt>
<wgt id='1381'> +7.5547362e+01 </wgt>
<wgt id='1382'> +4.1770761e+01 </wgt>
<wgt id='1383'> +7.0757915e+01 </wgt>
<wgt id='1384'> +7.1226846e+01 </wgt>
<wgt id='1385'> +5.9952809e+01 </wgt>
<wgt id='1386'> +6.0014845e+01 </wgt>
<wgt id='1387'> +5.9883153e+01 </wgt>
<wgt id='1388'> +5.9476461e+01 </wgt>
<wgt id='1389'> +6.0769979e+01 </wgt>
<wgt id='1390'> +5.9906539e+01 </wgt>
<wgt id='1391'> +5.9999809e+01 </wgt>
<wgt id='1392'> +6.0423465e+01 </wgt>
<wgt id='1393'> +5.9622010e+01 </wgt>
<wgt id='1394'> +5.9486555e+01 </wgt>
<wgt id='1395'> +6.0524753e+01 </wgt>
<wgt id='1396'> +5.9209968e+01 </wgt>
<wgt id='1397'> +6.0333103e+01 </wgt>
<wgt id='1398'> +6.0043189e+01 </wgt>
<wgt id='1399'> +5.9872935e+01 </wgt>
<wgt id='1400'> +5.9833244e+01 </wgt>
<wgt id='1401'> +6.0030542e+01 </wgt>
<wgt id='1402'> +5.9768012e+01 </wgt>
<wgt id='1403'> +6.0036003e+01 </wgt>
<wgt id='1404'> +6.0701775e+01 </wgt>
<wgt id='1405'> +5.9591696e+01 </wgt>
<wgt id='1406'> +5.9918267e+01 </wgt>
<wgt id='1407'> +6.0011360e+01 </wgt>
<wgt id='1408'> +5.9957691e+01 </wgt>
<wgt id='1409'> +5.9948146e+01 </wgt>
<wgt id='1410'> +5.9968456e+01 </wgt>
<wgt id='1411'> +5.9852629e+01 </wgt>
<wgt id='1412'> +6.0778707e+01 </wgt>
<wgt id='1413'> +5.8750676e+01 </wgt>
<wgt id='1414'> +6.0299500e+01 </wgt>
<wgt id='1415'> +5.9726619e+01 </wgt>
<wgt id='1416'> +6.0005056e+01 </wgt>
<wgt id='1417'> +5.9917739e+01 </wgt>
<wgt id='1418'> +6.0168328e+01 </wgt>
<wgt id='1419'> +5.9460587e+01 </wgt>
<wgt id='1420'> +5.9425340e+01 </wgt>
<wgt id='1421'> +6.0009024e+01 </wgt>
<wgt id='1422'> +6.0196747e+01 </wgt>
<wgt id='1423'> +5.9659694e+01 </wgt>
<wgt id='1424'> +6.0544696e+01 </wgt>
<wgt id='1425'> +5.8654356e+01 </wgt>
<wgt id='1426'> +6.0081471e+01 </wgt>
<wgt id='1427'> +5.9828377e+01 </wgt>
<wgt id='1428'> +6.0382895e+01 </wgt>
<wgt id='1429'> +5.9604255e+01 </wgt>
<wgt id='1430'> +5.9976966e+01 </wgt>
<wgt id='1431'> +5.9922777e+01 </wgt>
<wgt id='1432'> +5.9931721e+01 </wgt>
<wgt id='1433'> +5.9969854e+01 </wgt>
<wgt id='1434'> +5.9899654e+01 </wgt>
<wgt id='1435'> +5.9997891e+01 </wgt>
<wgt id='1436'> +0.0000000e+00 </wgt>
<wgt id='1437'> +0.0000000e+00 </wgt>
<wgt id='1438'> +0.0000000e+00 </wgt>
<wgt id='1439'> +0.0000000e+00 </wgt>
<wgt id='1440'> +0.0000000e+00 </wgt>
<wgt id='1441'> +0.0000000e+00 </wgt>
<wgt id='1442'> +0.0000000e+00 </wgt>
<wgt id='1443'> +0.0000000e+00 </wgt>
<wgt id='1444'> +0.0000000e+00 </wgt>
<wgt id='1445'> +0.0000000e+00 </wgt>
<wgt id='1446'> +0.0000000e+00 </wgt>
<wgt id='1447'> +0.0000000e+00 </wgt>
<wgt id='1448'> +0.0000000e+00 </wgt>
<wgt id='1449'> +0.0000000e+00 </wgt>
<wgt id='1450'> +0.0000000e+00 </wgt>
<wgt id='1451'> +0.0000000e+00 </wgt>
<wgt id='1452'> +0.0000000e+00 </wgt>
<wgt id='1453'> +0.0000000e+00 </wgt>
<wgt id='1454'> +0.0000000e+00 </wgt>
<wgt id='1455'> +0.0000000e+00 </wgt>
<wgt id='1456'> +0.0000000e+00 </wgt>
<wgt id='1457'> +0.0000000e+00 </wgt>
<wgt id='1458'> +0.0000000e+00 </wgt>
<wgt id='1459'> +0.0000000e+00 </wgt>
<wgt id='1460'> +0.0000000e+00 </wgt>
<wgt id='1461'> +0.0000000e+00 </wgt>
<wgt id='1462'> +0.0000000e+00 </wgt>
<wgt id='1463'> +0.0000000e+00 </wgt>
<wgt id='1464'> +0.0000000e+00 </wgt>
<wgt id='1465'> +7.4814791e+01 </wgt>
<wgt id='1466'> +7.2812505e+01 </wgt>
<wgt id='1467'> +7.2310102e+01 </wgt>
<wgt id='1468'> +7.3016651e+01 </wgt>
<wgt id='1469'> +7.2970232e+01 </wgt>
<wgt id='1470'> +7.2592581e+01 </wgt>
<wgt id='1471'> +7.3240448e+01 </wgt>
<wgt id='1472'> +7.2711312e+01 </wgt>
<wgt id='1473'> +7.3222809e+01 </wgt>
<wgt id='1474'> +7.2706619e+01 </wgt>
<wgt id='1475'> +7.2934459e+01 </wgt>
<wgt id='1476'> +7.4666817e+01 </wgt>
<wgt id='1477'> +7.2770087e+01 </wgt>
<wgt id='1478'> +7.1623486e+01 </wgt>
<wgt id='1479'> +7.3284609e+01 </wgt>
<wgt id='1480'> +7.1090868e+01 </wgt>
<wgt id='1481'> +7.3145240e+01 </wgt>
<wgt id='1482'> +7.2464155e+01 </wgt>
<wgt id='1483'> +7.1918131e+01 </wgt>
<wgt id='1484'> +7.2901872e+01 </wgt>
<wgt id='1485'> +7.2326567e+01 </wgt>
<wgt id='1486'> +7.2652578e+01 </wgt>
<wgt id='1487'> +7.2999609e+01 </wgt>
<wgt id='1488'> +7.2896567e+01 </wgt>
<wgt id='1489'> +7.2598566e+01 </wgt>
<wgt id='1490'> +7.2934964e+01 </wgt>
<wgt id='1491'> +7.3480919e+01 </wgt>
<wgt id='1492'> +7.2965274e+01 </wgt>
<wgt id='1493'> +7.2656300e+01 </wgt>
<wgt id='1494'> +7.2959627e+01 </wgt>
<wgt id='1495'> +7.2844525e+01 </wgt>
<wgt id='1496'> +7.2849750e+01 </wgt>
<wgt id='1497'> +7.2790841e+01 </wgt>
<wgt id='1498'> +7.2830212e+01 </wgt>
<wgt id='1499'> +7.2922354e+01 </wgt>
<wgt id='1500'> +7.3015418e+01 </wgt>
<wgt id='1501'> +7.2767957e+01 </wgt>
<wgt id='1502'> +7.2812467e+01 </wgt>
<wgt id='1503'> +7.2832756e+01 </wgt>
<wgt id='1504'> +7.2734317e+01 </wgt>
<wgt id='1505'> +7.2865414e+01 </wgt>
<wgt id='1506'> +7.2903727e+01 </wgt>
<wgt id='1507'> +7.2776722e+01 </wgt>
<wgt id='1508'> +7.2812284e+01 </wgt>
<wgt id='1509'> +7.2774409e+01 </wgt>
<wgt id='1510'> +7.2874562e+01 </wgt>
<wgt id='1511'> +7.2807142e+01 </wgt>
<wgt id='1512'> +7.2721593e+01 </wgt>
<wgt id='1513'> +7.2953064e+01 </wgt>
<wgt id='1514'> +7.2831424e+01 </wgt>
<wgt id='1515'> +7.2809831e+01 </wgt>
<wgt id='1516'> +7.2756259e+01 </wgt>
<wgt id='1517'> +7.2771344e+01 </wgt>
<wgt id='1518'> +7.2768326e+01 </wgt>
<wgt id='1519'> +7.2783214e+01 </wgt>
<wgt id='1520'> +7.2788402e+01 </wgt>
<wgt id='1521'> +7.2786990e+01 </wgt>
<wgt id='1522'> +7.2839329e+01 </wgt>
<wgt id='1523'> +7.2812268e+01 </wgt>
<wgt id='1524'> +7.2780854e+01 </wgt>
<wgt id='1525'> +7.2838207e+01 </wgt>
<wgt id='1526'> +7.2837475e+01 </wgt>
<wgt id='1527'> +7.2831748e+01 </wgt>
<wgt id='1528'> +7.2822808e+01 </wgt>
<wgt id='1529'> +7.2801936e+01 </wgt>
<wgt id='1530'> +7.2793427e+01 </wgt>
<wgt id='1531'> +7.2794009e+01 </wgt>
<wgt id='1532'> +7.2930762e+01 </wgt>
<wgt id='1533'> +7.2871709e+01 </wgt>
<wgt id='1534'> +7.2820205e+01 </wgt>
<wgt id='1535'> +7.2807115e+01 </wgt>
<wgt id='1536'> +7.2741061e+01 </wgt>
<wgt id='1537'> +7.2858146e+01 </wgt>
<wgt id='1538'> +7.2819648e+01 </wgt>
<wgt id='1539'> +7.2763824e+01 </wgt>
<wgt id='1540'> +7.2734924e+01 </wgt>
<wgt id='1541'> +7.2834736e+01 </wgt>
<wgt id='1542'> +7.2858776e+01 </wgt>
<wgt id='1543'> +7.2716698e+01 </wgt>
<wgt id='1544'> +7.2819094e+01 </wgt>
<wgt id='1545'> +7.2823771e+01 </wgt>
<wgt id='1546'> +7.2799057e+01 </wgt>
<wgt id='1547'> +7.2763394e+01 </wgt>
<wgt id='1548'> +7.2890545e+01 </wgt>
<wgt id='1549'> +7.2799828e+01 </wgt>
<wgt id='1550'> +7.2856418e+01 </wgt>
<wgt id='1551'> +7.2790680e+01 </wgt>
<wgt id='1552'> +7.2903091e+01 </wgt>
<wgt id='1553'> +7.2869769e+01 </wgt>
<wgt id='1554'> +7.2847964e+01 </wgt>
<wgt id='1555'> +7.2829682e+01 </wgt>
<wgt id='1556'> +7.2815072e+01 </wgt>
<wgt id='1557'> +7.2738018e+01 </wgt>
<wgt id='1558'> +7.2805313e+01 </wgt>
<wgt id='1559'> +7.2821218e+01 </wgt>
<wgt id='1560'> +7.2754083e+01 </wgt>
<wgt id='1561'> +7.2767812e+01 </wgt>
<wgt id='1562'> +7.2784112e+01 </wgt>
<wgt id='1563'> +7.2848855e+01 </wgt>
<wgt id='1564'> +7.2803469e+01 </wgt>
<wgt id='1565'> +7.2833657e+01 </wgt>
<wgt id='1566'> +7.2822541e+01 </wgt>
<wgt id='1567'> +7.0959778e+01 </wgt>
<wgt id='1568'> +7.4420712e+01 </wgt>
<wgt id='1569'> +7.4027822e+01 </wgt>
<wgt id='1570'> +7.3442514e+01 </wgt>
<wgt id='1571'> +7.4365484e+01 </wgt>
<wgt id='1572'> +7.3320008e+01 </wgt>
<wgt id='1573'> +7.3668051e+01 </wgt>
<wgt id='1574'> +7.3936356e+01 </wgt>
<wgt id='1575'> +7.4365388e+01 </wgt>
<wgt id='1576'> +7.5044549e+01 </wgt>
<wgt id='1577'> +7.4429725e+01 </wgt>
<wgt id='1578'> +7.3822910e+01 </wgt>
<wgt id='1579'> +7.3415302e+01 </wgt>
<wgt id='1580'> +7.5759796e+01 </wgt>
<wgt id='1581'> +7.3301440e+01 </wgt>
<wgt id='1582'> +7.2466047e+01 </wgt>
<wgt id='1583'> +7.3261883e+01 </wgt>
<wgt id='1584'> +7.3683408e+01 </wgt>
<wgt id='1585'> +7.5731644e+01 </wgt>
<wgt id='1586'> +7.3510006e+01 </wgt>
<wgt id='1587'> +7.3581162e+01 </wgt>
<wgt id='1588'> +7.4056177e+01 </wgt>
<wgt id='1589'> +7.4916122e+01 </wgt>
<wgt id='1590'> +7.4092386e+01 </wgt>
<wgt id='1591'> +7.4049478e+01 </wgt>
<wgt id='1592'> +7.4131314e+01 </wgt>
<wgt id='1593'> +7.3806284e+01 </wgt>
<wgt id='1594'> +7.3823102e+01 </wgt>
<wgt id='1595'> +7.3779418e+01 </wgt>
<wgt id='1596'> +7.4241137e+01 </wgt>
<wgt id='1597'> +7.4202902e+01 </wgt>
<wgt id='1598'> +7.3933565e+01 </wgt>
<wgt id='1599'> +7.3877023e+01 </wgt>
<wgt id='1600'> +7.4364810e+01 </wgt>
<wgt id='1601'> +7.3977919e+01 </wgt>
<wgt id='1602'> +7.3984719e+01 </wgt>
<wgt id='1603'> +7.3985280e+01 </wgt>
<wgt id='1604'> +7.4032565e+01 </wgt>
<wgt id='1605'> +7.4041450e+01 </wgt>
<wgt id='1606'> +7.4076779e+01 </wgt>
<wgt id='1607'> +7.3981993e+01 </wgt>
<wgt id='1608'> +7.3911809e+01 </wgt>
<wgt id='1609'> +7.3974829e+01 </wgt>
<wgt id='1610'> +7.3935217e+01 </wgt>
<wgt id='1611'> +7.3954578e+01 </wgt>
<wgt id='1612'> +7.4148912e+01 </wgt>
<wgt id='1613'> +7.4001989e+01 </wgt>
<wgt id='1614'> +7.3984221e+01 </wgt>
<wgt id='1615'> +7.4043223e+01 </wgt>
<wgt id='1616'> +7.3951151e+01 </wgt>
<wgt id='1617'> +7.4095248e+01 </wgt>
<wgt id='1618'> +7.3978342e+01 </wgt>
<wgt id='1619'> +7.4065666e+01 </wgt>
<wgt id='1620'> +7.4018025e+01 </wgt>
<wgt id='1621'> +7.4019288e+01 </wgt>
<wgt id='1622'> +7.4040214e+01 </wgt>
<wgt id='1623'> +7.4058717e+01 </wgt>
<wgt id='1624'> +7.4062521e+01 </wgt>
<wgt id='1625'> +7.3974878e+01 </wgt>
<wgt id='1626'> +7.4041777e+01 </wgt>
<wgt id='1627'> +7.4079190e+01 </wgt>
<wgt id='1628'> +7.4061092e+01 </wgt>
<wgt id='1629'> +7.4066612e+01 </wgt>
<wgt id='1630'> +7.4058065e+01 </wgt>
<wgt id='1631'> +7.4012826e+01 </wgt>
<wgt id='1632'> +7.3996425e+01 </wgt>
<wgt id='1633'> +7.4049504e+01 </wgt>
<wgt id='1634'> +7.4012632e+01 </wgt>
<wgt id='1635'> +7.4022991e+01 </wgt>
<wgt id='1636'> +7.4001377e+01 </wgt>
<wgt id='1637'> +7.4046677e+01 </wgt>
<wgt id='1638'> +7.3997508e+01 </wgt>
<wgt id='1639'> +7.4006027e+01 </wgt>
<wgt id='1640'> +7.4085027e+01 </wgt>
<wgt id='1641'> +7.4028173e+01 </wgt>
<wgt id='1642'> +7.3990599e+01 </wgt>
<wgt id='1643'> +7.4031740e+01 </wgt>
<wgt id='1644'> +7.4037440e+01 </wgt>
<wgt id='1645'> +7.4089257e+01 </wgt>
<wgt id='1646'> +7.4041706e+01 </wgt>
<wgt id='1647'> +7.4066214e+01 </wgt>
<wgt id='1648'> +7.4027654e+01 </wgt>
<wgt id='1649'> +7.4002410e+01 </wgt>
<wgt id='1650'> +7.4081697e+01 </wgt>
<wgt id='1651'> +7.4059624e+01 </wgt>
<wgt id='1652'> +7.4012508e+01 </wgt>
<wgt id='1653'> +7.3996502e+01 </wgt>
<wgt id='1654'> +7.4036172e+01 </wgt>
<wgt id='1655'> +7.4097122e+01 </wgt>
<wgt id='1656'> +7.3980022e+01 </wgt>
<wgt id='1657'> +7.3988121e+01 </wgt>
<wgt id='1658'> +7.3985462e+01 </wgt>
<wgt id='1659'> +7.4015651e+01 </wgt>
<wgt id='1660'> +7.3983351e+01 </wgt>
<wgt id='1661'> +7.3992460e+01 </wgt>
<wgt id='1662'> +7.4031760e+01 </wgt>
<wgt id='1663'> +7.3973831e+01 </wgt>
<wgt id='1664'> +7.4032691e+01 </wgt>
<wgt id='1665'> +7.4043175e+01 </wgt>
<wgt id='1666'> +7.4037166e+01 </wgt>
<wgt id='1667'> +7.4014516e+01 </wgt>
<wgt id='1668'> +7.4039690e+01 </wgt>
<wgt id='1669'> +7.4039837e+01 </wgt>
<wgt id='1670'> +7.2615557e+01 </wgt>
<wgt id='1671'> +7.4991187e+01 </wgt>
<wgt id='1672'> +7.2810160e+01 </wgt>
<wgt id='1673'> +7.2640265e+01 </wgt>
<wgt id='1674'> +7.1532301e+01 </wgt>
<wgt id='1675'> +7.2767446e+01 </wgt>
<wgt id='1676'> +7.1651451e+01 </wgt>
<wgt id='1677'> +7.4656315e+01 </wgt>
<wgt id='1678'> +7.2210029e+01 </wgt>
<wgt id='1679'> +7.2814924e+01 </wgt>
<wgt id='1680'> +7.3285032e+01 </wgt>
<wgt id='1681'> +7.2744588e+01 </wgt>
<wgt id='1682'> +7.3095922e+01 </wgt>
<wgt id='1683'> +7.2885454e+01 </wgt>
<wgt id='1684'> +7.3139504e+01 </wgt>
<wgt id='1685'> +7.2834924e+01 </wgt>
<wgt id='1686'> +7.2516355e+01 </wgt>
<wgt id='1687'> +7.2984566e+01 </wgt>
<wgt id='1688'> +7.2581940e+01 </wgt>
<wgt id='1689'> +7.1901364e+01 </wgt>
<wgt id='1690'> +7.3025441e+01 </wgt>
<wgt id='1691'> +7.3488884e+01 </wgt>
<wgt id='1692'> +7.3037769e+01 </wgt>
<wgt id='1693'> +7.2692406e+01 </wgt>
<wgt id='1694'> +7.2374514e+01 </wgt>
<wgt id='1695'> +7.2792849e+01 </wgt>
<wgt id='1696'> +7.2302085e+01 </wgt>
<wgt id='1697'> +7.2906422e+01 </wgt>
<wgt id='1698'> +7.2959507e+01 </wgt>
<wgt id='1699'> +7.3174271e+01 </wgt>
<wgt id='1700'> +7.3443979e+01 </wgt>
<wgt id='1701'> +7.3028832e+01 </wgt>
<wgt id='1702'> +7.2896182e+01 </wgt>
<wgt id='1703'> +7.0959778e+01 </wgt>
<wgt id='1704'> +7.4420712e+01 </wgt>
<wgt id='1705'> +7.4025950e+01 </wgt>
<wgt id='1706'> +7.2930871e+01 </wgt>
<wgt id='1707'> +7.4187242e+01 </wgt>
<wgt id='1708'> +7.3749280e+01 </wgt>
<wgt id='1709'> +7.4515108e+01 </wgt>
<wgt id='1710'> +7.1998744e+01 </wgt>
<wgt id='1711'> +7.3962198e+01 </wgt>
<wgt id='1712'> +7.3843808e+01 </wgt>
<wgt id='1713'> +7.3172927e+01 </wgt>
<wgt id='1714'> +7.3837130e+01 </wgt>
<wgt id='1715'> +7.5191520e+01 </wgt>
<wgt id='1716'> +7.4200444e+01 </wgt>
<wgt id='1717'> +7.4220592e+01 </wgt>
<wgt id='1718'> +7.4061724e+01 </wgt>
<wgt id='1719'> +7.3846862e+01 </wgt>
<wgt id='1720'> +7.3496495e+01 </wgt>
<wgt id='1721'> +7.3430640e+01 </wgt>
<wgt id='1722'> +7.4774225e+01 </wgt>
<wgt id='1723'> +7.3839453e+01 </wgt>
<wgt id='1724'> +7.3765250e+01 </wgt>
<wgt id='1725'> +7.4816861e+01 </wgt>
<wgt id='1726'> +7.4263537e+01 </wgt>
<wgt id='1727'> +7.5758560e+01 </wgt>
<wgt id='1728'> +7.4152451e+01 </wgt>
<wgt id='1729'> +7.4583450e+01 </wgt>
<wgt id='1730'> +7.4041053e+01 </wgt>
<wgt id='1731'> +7.4269442e+01 </wgt>
<wgt id='1732'> +7.4201470e+01 </wgt>
<wgt id='1733'> +7.4572853e+01 </wgt>
<wgt id='1734'> +7.4390587e+01 </wgt>
<wgt id='1735'> +7.4071741e+01 </wgt>
<wgt id='1736'> +7.2615557e+01 </wgt>
<wgt id='1737'> +7.4991187e+01 </wgt>
<wgt id='1738'> +7.5461060e+01 </wgt>
<wgt id='1739'> +7.5313757e+01 </wgt>
<wgt id='1740'> +7.5607836e+01 </wgt>
<wgt id='1741'> +7.5772232e+01 </wgt>
<wgt id='1742'> +7.5150696e+01 </wgt>
<wgt id='1743'> +7.5595735e+01 </wgt>
<wgt id='1744'> +7.5326487e+01 </wgt>
<wgt id='1745'> +7.5686027e+01 </wgt>
<wgt id='1746'> +7.5242562e+01 </wgt>
<wgt id='1747'> +7.5594764e+01 </wgt>
<wgt id='1748'> +7.5331330e+01 </wgt>
<wgt id='1749'> +7.5147677e+01 </wgt>
<wgt id='1750'> +7.5758627e+01 </wgt>
<wgt id='1751'> +7.5104150e+01 </wgt>
<wgt id='1752'> +7.5819802e+01 </wgt>
<wgt id='1753'> +7.5461571e+01 </wgt>
<wgt id='1754'> +7.5475441e+01 </wgt>
<wgt id='1755'> +7.5770105e+01 </wgt>
<wgt id='1756'> +7.5077625e+01 </wgt>
<wgt id='1757'> +7.5165176e+01 </wgt>
<wgt id='1758'> +7.5764940e+01 </wgt>
<wgt id='1759'> +7.5864260e+01 </wgt>
<wgt id='1760'> +7.4935356e+01 </wgt>
<wgt id='1761'> +7.4964102e+01 </wgt>
<wgt id='1762'> +7.5426748e+01 </wgt>
<wgt id='1763'> +7.5643821e+01 </wgt>
<wgt id='1764'> +7.5424768e+01 </wgt>
<wgt id='1765'> +7.5530351e+01 </wgt>
<wgt id='1766'> +7.5482551e+01 </wgt>
<wgt id='1767'> +7.5461060e+01 </wgt>
<wgt id='1768'> +7.5454962e+01 </wgt>
<wgt id='1769'> +7.5410051e+01 </wgt>
<wgt id='1770'> +7.5438435e+01 </wgt>
<wgt id='1771'> +7.5428372e+01 </wgt>
<wgt id='1772'> +7.6082986e+01 </wgt>
<wgt id='1773'> +7.4676046e+01 </wgt>
<wgt id='1774'> +7.5044385e+01 </wgt>
<wgt id='1775'> +7.5859110e+01 </wgt>
<wgt id='1776'> +7.7342785e+01 </wgt>
<wgt id='1777'> +7.3723727e+01 </wgt>
<wgt id='1778'> +7.5388410e+01 </wgt>
<wgt id='1779'> +7.3676981e+01 </wgt>
<wgt id='1780'> +7.4454560e+01 </wgt>
<wgt id='1781'> +7.3570628e+01 </wgt>
<wgt id='1782'> +7.3488824e+01 </wgt>
<wgt id='1783'> +7.3639384e+01 </wgt>
<wgt id='1784'> +7.3800925e+01 </wgt>
<wgt id='1785'> +7.3327791e+01 </wgt>
<wgt id='1786'> +7.3819327e+01 </wgt>
<wgt id='1787'> +7.3309966e+01 </wgt>
<wgt id='1788'> +7.3942245e+01 </wgt>
<wgt id='1789'> +7.3192835e+01 </wgt>
<wgt id='1790'> +7.3551926e+01 </wgt>
<wgt id='1791'> +7.3575184e+01 </wgt>
<wgt id='1792'> +7.3810373e+01 </wgt>
<wgt id='1793'> +7.3318295e+01 </wgt>
<wgt id='1794'> +7.3305397e+01 </wgt>
<wgt id='1795'> +7.3827987e+01 </wgt>
<wgt id='1796'> +7.3476157e+01 </wgt>
<wgt id='1797'> +7.3751497e+01 </wgt>
<wgt id='1798'> +7.3561566e+01 </wgt>
<wgt id='1799'> +7.3543203e+01 </wgt>
<wgt id='1800'> +7.3359369e+01 </wgt>
<wgt id='1801'> +7.3757805e+01 </wgt>
<wgt id='1802'> +7.2559770e+01 </wgt>
<wgt id='1803'> +7.4389003e+01 </wgt>
<wgt id='1804'> +7.3610107e+01 </wgt>
<wgt id='1805'> +7.3481317e+01 </wgt>
<wgt id='1806'> +7.3253174e+01 </wgt>
<wgt id='1807'> +7.3577698e+01 </wgt>
<wgt id='1808'> +7.3562817e+01 </wgt>
<wgt id='1809'> +7.3690034e+01 </wgt>
<wgt id='1810'> +7.3570945e+01 </wgt>
<wgt id='1811'> +7.3631310e+01 </wgt>
<wgt id='1812'> +7.3356158e+01 </wgt>
<wgt id='1813'> +7.3598277e+01 </wgt>
<wgt id='1814'> +7.3492206e+01 </wgt>
<wgt id='1815'> +7.3566674e+01 </wgt>
<wgt id='1816'> +7.3280307e+01 </wgt>
<wgt id='1817'> +7.3155732e+01 </wgt>
<wgt id='1818'> +7.4188664e+01 </wgt>
<wgt id='1819'> +7.5008894e+01 </wgt>
<wgt id='1820'> +7.1958921e+01 </wgt>
<wgt id='1821'> +7.3005472e+01 </wgt>
<wgt id='1822'> +7.2732533e+01 </wgt>
<wgt id='1823'> +7.2875002e+01 </wgt>
<wgt id='1824'> +7.1014734e+01 </wgt>
<wgt id='1825'> +7.1007717e+01 </wgt>
<wgt id='1826'> +7.1000515e+01 </wgt>
<wgt id='1827'> +7.0993636e+01 </wgt>
<wgt id='1828'> +7.0986549e+01 </wgt>
<wgt id='1829'> +7.0979501e+01 </wgt>
<wgt id='1830'> +7.0972368e+01 </wgt>
<wgt id='1831'> +7.0965484e+01 </wgt>
<wgt id='1832'> +7.0958336e+01 </wgt>
<wgt id='1833'> +7.0951202e+01 </wgt>
<wgt id='1834'> +7.0944109e+01 </wgt>
<wgt id='1835'> +7.0937050e+01 </wgt>
<wgt id='1836'> +7.0930047e+01 </wgt>
<wgt id='1837'> +7.0922914e+01 </wgt>
<wgt id='1838'> +7.0915886e+01 </wgt>
<wgt id='1839'> +7.0908692e+01 </wgt>
<wgt id='1840'> +7.0901923e+01 </wgt>
<wgt id='1841'> +7.0894779e+01 </wgt>
<wgt id='1842'> +7.0887614e+01 </wgt>
<wgt id='1843'> +7.0880560e+01 </wgt>
<wgt id='1844'> +7.0873618e+01 </wgt>
<wgt id='1845'> +7.0866464e+01 </wgt>
<wgt id='1846'> +7.0859419e+01 </wgt>
<wgt id='1847'> +7.0852359e+01 </wgt>
<wgt id='1848'> +7.0845325e+01 </wgt>
<wgt id='1849'> +7.0838219e+01 </wgt>
<wgt id='1850'> +7.0831191e+01 </wgt>
<wgt id='1851'> +7.0824028e+01 </wgt>
<wgt id='1852'> +7.0817193e+01 </wgt>
<wgt id='1853'> +7.0810075e+01 </wgt>
<wgt id='1854'> +7.0802956e+01 </wgt>
<wgt id='1855'> +7.3355693e+01 </wgt>
<wgt id='1856'> +7.2719241e+01 </wgt>
<wgt id='1857'> +7.3676143e+01 </wgt>
<wgt id='1858'> +7.2656108e+01 </wgt>
<wgt id='1859'> +7.2985796e+01 </wgt>
<wgt id='1860'> +7.3261182e+01 </wgt>
<wgt id='1861'> +7.3731177e+01 </wgt>
<wgt id='1862'> +7.4405778e+01 </wgt>
<wgt id='1863'> +7.3758157e+01 </wgt>
<wgt id='1864'> +7.3156945e+01 </wgt>
<wgt id='1865'> +7.2737507e+01 </wgt>
<wgt id='1866'> +7.5128831e+01 </wgt>
<wgt id='1867'> +7.2660665e+01 </wgt>
<wgt id='1868'> +7.1830234e+01 </wgt>
<wgt id='1869'> +7.2591692e+01 </wgt>
<wgt id='1870'> +7.2937564e+01 </wgt>
<wgt id='1871'> +7.5102975e+01 </wgt>
<wgt id='1872'> +7.2816924e+01 </wgt>
<wgt id='1873'> +7.2898177e+01 </wgt>
<wgt id='1874'> +7.3419608e+01 </wgt>
<wgt id='1875'> +7.4279762e+01 </wgt>
<wgt id='1876'> +7.3397924e+01 </wgt>
<wgt id='1877'> +7.3367668e+01 </wgt>
<wgt id='1878'> +7.3476999e+01 </wgt>
<wgt id='1879'> +7.3112531e+01 </wgt>
<wgt id='1880'> +7.3111059e+01 </wgt>
<wgt id='1881'> +7.3069625e+01 </wgt>
<wgt id='1882'> +7.3613036e+01 </wgt>
<wgt id='1883'> +7.3547516e+01 </wgt>
<wgt id='1884'> +7.3240253e+01 </wgt>
<wgt id='1885'> +7.3186406e+01 </wgt>
<wgt id='1886'> +7.3738383e+01 </wgt>
<wgt id='1887'> +7.3288407e+01 </wgt>
<wgt id='1888'> +7.3297071e+01 </wgt>
<wgt id='1889'> +7.3313111e+01 </wgt>
<wgt id='1890'> +7.3348902e+01 </wgt>
<wgt id='1891'> +7.3372554e+01 </wgt>
<wgt id='1892'> +7.3404846e+01 </wgt>
<wgt id='1893'> +7.3303590e+01 </wgt>
<wgt id='1894'> +7.3223516e+01 </wgt>
<wgt id='1895'> +7.3303895e+01 </wgt>
<wgt id='1896'> +7.3254614e+01 </wgt>
<wgt id='1897'> +7.3276793e+01 </wgt>
<wgt id='1898'> +7.3499693e+01 </wgt>
<wgt id='1899'> +7.3324295e+01 </wgt>
<wgt id='1900'> +7.3307981e+01 </wgt>
<wgt id='1901'> +7.3383319e+01 </wgt>
<wgt id='1902'> +7.3272802e+01 </wgt>
<wgt id='1903'> +7.3430737e+01 </wgt>
<wgt id='1904'> +7.3302760e+01 </wgt>
<wgt id='1905'> +7.3397085e+01 </wgt>
<wgt id='1906'> +7.3341283e+01 </wgt>
<wgt id='1907'> +7.3346034e+01 </wgt>
<wgt id='1908'> +7.3369288e+01 </wgt>
<wgt id='1909'> +7.3392560e+01 </wgt>
<wgt id='1910'> +7.3395385e+01 </wgt>
<wgt id='1911'> +7.3288320e+01 </wgt>
<wgt id='1912'> +7.3371403e+01 </wgt>
<wgt id='1913'> +7.3420151e+01 </wgt>
<wgt id='1914'> +7.3396128e+01 </wgt>
<wgt id='1915'> +7.3401418e+01 </wgt>
<wgt id='1916'> +7.3388653e+01 </wgt>
<wgt id='1917'> +7.3337407e+01 </wgt>
<wgt id='1918'> +7.3317027e+01 </wgt>
<wgt id='1919'> +7.3383439e+01 </wgt>
<wgt id='1920'> +7.3338047e+01 </wgt>
<wgt id='1921'> +7.3348466e+01 </wgt>
<wgt id='1922'> +7.3322080e+01 </wgt>
<wgt id='1923'> +7.3375390e+01 </wgt>
<wgt id='1924'> +7.3317583e+01 </wgt>
<wgt id='1925'> +7.3331600e+01 </wgt>
<wgt id='1926'> +7.3415749e+01 </wgt>
<wgt id='1927'> +7.3350734e+01 </wgt>
<wgt id='1928'> +7.3315201e+01 </wgt>
<wgt id='1929'> +7.3359271e+01 </wgt>
<wgt id='1930'> +7.3366694e+01 </wgt>
<wgt id='1931'> +7.3426271e+01 </wgt>
<wgt id='1932'> +7.3370976e+01 </wgt>
<wgt id='1933'> +7.3399550e+01 </wgt>
<wgt id='1934'> +7.3355524e+01 </wgt>
<wgt id='1935'> +7.3322434e+01 </wgt>
<wgt id='1936'> +7.3417677e+01 </wgt>
<wgt id='1937'> +7.3389641e+01 </wgt>
<wgt id='1938'> +7.3340682e+01 </wgt>
<wgt id='1939'> +7.3321080e+01 </wgt>
<wgt id='1940'> +7.3366497e+01 </wgt>
<wgt id='1941'> +7.3434608e+01 </wgt>
<wgt id='1942'> +7.3304562e+01 </wgt>
<wgt id='1943'> +7.3311653e+01 </wgt>
<wgt id='1944'> +7.3309142e+01 </wgt>
<wgt id='1945'> +7.3340657e+01 </wgt>
<wgt id='1946'> +7.3305256e+01 </wgt>
<wgt id='1947'> +7.3315657e+01 </wgt>
<wgt id='1948'> +7.3360882e+01 </wgt>
<wgt id='1949'> +7.3294691e+01 </wgt>
<wgt id='1950'> +7.3360535e+01 </wgt>
<wgt id='1951'> +7.3374179e+01 </wgt>
<wgt id='1952'> +7.3365256e+01 </wgt>
<wgt id='1953'> +7.3340652e+01 </wgt>
<wgt id='1954'> +7.3370945e+01 </wgt>
<wgt id='1955'> +7.3369889e+01 </wgt>
<wgt id='1956'> +7.3355269e+01 </wgt>
<wgt id='1957'> +7.3357696e+01 </wgt>
<wgt id='1958'> +7.3356053e+01 </wgt>
<wgt id='1959'> +7.3356154e+01 </wgt>
<wgt id='1960'> +7.3356806e+01 </wgt>
<wgt id='1961'> +7.3355848e+01 </wgt>
<wgt id='1962'> +7.3357936e+01 </wgt>
</rwgt>
</event>
<event npLO=" -1 " npNLO=" 0 ">
 7      0 +1.5146096e+02 3.71686630e+01 7.54677110e-03 1.16569940e-01
       -1 -1    0    0    0  501 +0.0000000000e+00 +0.0000000000e+00 +5.4636046000e+02 5.4636046000e+02 0.0000000000e+00 0.0000e+00 9.0000e+00
       21 -1    0    0  501  502 +0.0000000000e+00 +0.0000000000e+00 -1.3770492000e+01 1.3770492000e+01 0.0000000000e+00 0.0000e+00 9.0000e+00
       23  2    1    2    0    0 -3.2277879000e+01 -8.2394681000e+00 +5.1087496000e+02 5.2036549000e+02 9.3151853000e+01 0.0000e+00 0.0000e+00
       11  1    3    3    0    0 +3.6511733000e+00 -1.9353330000e+01 +3.1517771000e+01 3.7165204000e+01 0.0000000000e+00 0.0000e+00 9.0000e+00
      -11  1    3    3    0    0 -3.6947518000e+01 +2.6255565000e+01 +3.7932664000e+02 3.8202510000e+02 0.0000000000e+00 0.0000e+00 9.0000e+00
       22  1    3    3    0    0 +1.0184659000e+00 -1.5141703000e+01 +1.0003055000e+02 1.0117519000e+02 0.0000000000e+00 0.0000e+00 9.0000e+00
       -1  1    1    2    0  502 +3.2277879000e+01 +8.2394681000e+00 +2.1715006000e+01 3.9765460000e+01 0.0000000000e+00 0.0000e+00 9.0000e+00
#aMCatNLO 2  0  0  2  1 0.34713365E+02 0.00000000E+00 -9  6  0 0.00000000E+00 0.00000000E+00 0.00000000E+00 0.00000000E+00 0.00000000E+00
<rwgt>
<wgt id='1001'> +1.5146000e+02 </wgt>
<wgt id='1002'> +1.5146000e+02 </wgt>
<wgt id='1003'> +1.3832000e+02 </wgt>
<wgt id='1004'> +1.4778000e+02 </wgt>
<wgt id='1005'> +1.5674000e+02 </wgt>
<wgt id='1006'> +1.4986000e+02 </wgt>
<wgt id='1007'> +1.5302000e+02 </wgt>
<wgt id='1008'> +1.4740000e+02 </wgt>
<wgt id='1009'> +1.5041000e+02 </wgt>
<wgt id='1010'> +1.4776000e+02 </wgt>
<wgt id='1011'> +1.5709000e+02 </wgt>
<wgt id='1012'> +1.5559000e+02 </wgt>
<wgt id='1013'> +1.4840000e+02 </wgt>
<wgt id='1014'> +1.5248000e+02 </wgt>
<wgt id='1015'> +1.5734000e+02 </wgt>
<wgt id='1016'> +1.5320000e+02 </wgt>
<wgt id='1017'> +1.5120000e+02 </wgt>
<wgt id='1018'> +1.6105000e+02 </wgt>
<wgt id='1019'> +1.4940000e+02 </wgt>
<wgt id='1020'> +1.4786000e+02 </wgt>
<wgt id='1021'> +1.4952000e+02 </wgt>
<wgt id='1022'> +1.5374000e+02 </wgt>
<wgt id='1023'> +1.5769000e+02 </wgt>
<wgt id='1024'> +1.5155000e+02 </wgt>
<wgt id='1025'> +1.6496000e+02 </wgt>
<wgt id='1026'> +1.6152000e+02 </wgt>
<wgt id='1027'> +1.4992000e+02 </wgt>
<wgt id='1028'> +1.4853000e+02 </wgt>
<wgt id='1029'> +1.5210000e+02 </wgt>
<wgt id='1030'> +1.5137000e+02 </wgt>
<wgt id='1031'> +1.4733000e+02 </wgt>
<wgt id='1032'> +1.5443000e+02 </wgt>
<wgt id='1033'> +1.5861000e+02 </wgt>
<wgt id='1034'> +1.5180000e+02 </wgt>
<wgt id='1035'> +1.5418000e+02 </wgt>
<wgt id='1036'> +1.5706000e+02 </wgt>
<wgt id='1037'> +1.5858000e+02 </wgt>
<wgt id='1038'> +1.4797000e+02 </wgt>
<wgt id='1039'> +1.5531000e+02 </wgt>
<wgt id='1040'> +1.5025000e+02 </wgt>
<wgt id='1041'> +1.4618000e+02 </wgt>
<wgt id='1042'> +1.5057000e+02 </wgt>
<wgt id='1043'> +1.4320000e+02 </wgt>
<wgt id='1044'> +1.4891000e+02 </wgt>
<wgt id='1045'> +1.5246000e+02 </wgt>
<wgt id='1046'> +1.5280000e+02 </wgt>
<wgt id='1047'> +1.4794000e+02 </wgt>
<wgt id='1048'> +1.4696000e+02 </wgt>
<wgt id='1049'> +1.4573000e+02 </wgt>
<wgt id='1050'> +1.4840000e+02 </wgt>
<wgt id='1051'> +1.5527000e+02 </wgt>
<wgt id='1052'> +1.4895000e+02 </wgt>
<wgt id='1053'> +1.4743000e+02 </wgt>
<wgt id='1054'> +1.5066000e+02 </wgt>
<wgt id='1055'> +1.5821000e+02 </wgt>
<wgt id='1056'> +1.5142000e+02 </wgt>
<wgt id='1057'> +1.5516000e+02 </wgt>
<wgt id='1058'> +1.4547000e+02 </wgt>
<wgt id='1059'> +1.4742000e+02 </wgt>
<wgt id='1060'> +1.4496000e+02 </wgt>
<wgt id='1061'> +1.5467000e+02 </wgt>
<wgt id='1062'> +1.4638000e+02 </wgt>
<wgt id='1063'> +1.4992000e+02 </wgt>
<wgt id='1064'> +1.4997000e+02 </wgt>
<wgt id='1065'> +1.5904000e+02 </wgt>
<wgt id='1066'> +1.4087000e+02 </wgt>
<wgt id='1067'> +1.5300000e+02 </wgt>
<wgt id='1068'> +1.5849000e+02 </wgt>
<wgt id='1069'> +1.5110000e+02 </wgt>
<wgt id='1070'> +1.4895000e+02 </wgt>
<wgt id='1071'> +1.5280000e+02 </wgt>
<wgt id='1072'> +1.5950000e+02 </wgt>
<wgt id='1073'> +1.5238000e+02 </wgt>
<wgt id='1074'> +1.5269000e+02 </wgt>
<wgt id='1075'> +1.4372000e+02 </wgt>
<wgt id='1076'> +1.5904000e+02 </wgt>
<wgt id='1077'> +1.4494000e+02 </wgt>
<wgt id='1078'> +1.5130000e+02 </wgt>
<wgt id='1079'> +1.5702000e+02 </wgt>
<wgt id='1080'> +1.5331000e+02 </wgt>
<wgt id='1081'> +1.4735000e+02 </wgt>
<wgt id='1082'> +1.5478000e+02 </wgt>
<wgt id='1083'> +1.5125000e+02 </wgt>
<wgt id='1084'> +1.4846000e+02 </wgt>
<wgt id='1085'> +1.4425000e+02 </wgt>
<wgt id='1086'> +1.5580000e+02 </wgt>
<wgt id='1087'> +1.5349000e+02 </wgt>
<wgt id='1088'> +1.5174000e+02 </wgt>
<wgt id='1089'> +1.4695000e+02 </wgt>
<wgt id='1090'> +1.4710000e+02 </wgt>
<wgt id='1091'> +1.5205000e+02 </wgt>
<wgt id='1092'> +1.5715000e+02 </wgt>
<wgt id='1093'> +1.4928000e+02 </wgt>
<wgt id='1094'> +1.5458000e+02 </wgt>
<wgt id='1095'> +1.5024000e+02 </wgt>
<wgt id='1096'> +1.5438000e+02 </wgt>
<wgt id='1097'> +1.4580000e+02 </wgt>
<wgt id='1098'> +1.4798000e+02 </wgt>
<wgt id='1099'> +1.6056000e+02 </wgt>
<wgt id='1100'> +1.5300000e+02 </wgt>
<wgt id='1101'> +1.4801000e+02 </wgt>
<wgt id='1102'> +1.4397000e+02 </wgt>
<wgt id='1103'> +1.4969000e+02 </wgt>
<wgt id='1104'> +1.5097000e+02 </wgt>
<wgt id='1105'> +1.5146096e+02 </wgt>
<wgt id='1106'> +6.8658069e+01 </wgt>
<wgt id='1107'> +8.4467318e+01 </wgt>
<wgt id='1108'> +7.9687603e+01 </wgt>
<wgt id='1109'> +7.2245641e+01 </wgt>
<wgt id='1110'> +8.8880967e+01 </wgt>
<wgt id='1111'> +7.0450710e+01 </wgt>
<wgt id='1112'> +6.3871374e+01 </wgt>
<wgt id='1113'> +7.8578436e+01 </wgt>
<wgt id='1114'> +7.8482298e+01 </wgt>
<wgt id='1115'> +8.5483193e+01 </wgt>
<wgt id='1116'> +7.8805501e+01 </wgt>
<wgt id='1117'> +8.5681089e+01 </wgt>
<wgt id='1118'> +8.2457924e+01 </wgt>
<wgt id='1119'> +7.8287367e+01 </wgt>
<wgt id='1120'> +7.6374152e+01 </wgt>
<wgt id='1121'> +7.7105641e+01 </wgt>
<wgt id='1122'> +7.7044041e+01 </wgt>
<wgt id='1123'> +7.4613010e+01 </wgt>
<wgt id='1124'> +7.7621819e+01 </wgt>
<wgt id='1125'> +7.7407589e+01 </wgt>
<wgt id='1126'> +7.6693636e+01 </wgt>
<wgt id='1127'> +8.0905201e+01 </wgt>
<wgt id='1128'> +7.9499787e+01 </wgt>
<wgt id='1129'> +7.6191293e+01 </wgt>
<wgt id='1130'> +7.8017115e+01 </wgt>
<wgt id='1131'> +8.0582209e+01 </wgt>
<wgt id='1132'> +7.7555125e+01 </wgt>
<wgt id='1133'> +8.1275299e+01 </wgt>
<wgt id='1134'> +7.6983818e+01 </wgt>
<wgt id='1135'> +7.8513014e+01 </wgt>
<wgt id='1136'> +8.3260020e+01 </wgt>
<wgt id='1137'> +7.7140488e+01 </wgt>
<wgt id='1138'> +8.0187380e+01 </wgt>
<wgt id='1139'> +7.4408340e+01 </wgt>
<wgt id='1140'> +8.2111002e+01 </wgt>
<wgt id='1141'> +8.5123459e+01 </wgt>
<wgt id='1142'> +7.8876351e+01 </wgt>
<wgt id='1143'> +7.5845692e+01 </wgt>
<wgt id='1144'> +7.7277306e+01 </wgt>
<wgt id='1145'> +7.9869186e+01 </wgt>
<wgt id='1146'> +7.6764390e+01 </wgt>
<wgt id='1147'> +8.3001612e+01 </wgt>
<wgt id='1148'> +7.7769593e+01 </wgt>
<wgt id='1149'> +8.0091774e+01 </wgt>
<wgt id='1150'> +7.9017914e+01 </wgt>
<wgt id='1151'> +7.9319991e+01 </wgt>
<wgt id='1152'> +7.6856293e+01 </wgt>
<wgt id='1153'> +7.6061842e+01 </wgt>
<wgt id='1154'> +7.8562520e+01 </wgt>
<wgt id='1155'> +8.1792976e+01 </wgt>
<wgt id='1156'> +7.8495456e+01 </wgt>
<wgt id='1157'> +8.5618897e+01 </wgt>
<wgt id='1158'> +7.6323119e+01 </wgt>
<wgt id='1159'> +7.7023756e+01 </wgt>
<wgt id='1160'> +7.8738578e+01 </wgt>
<wgt id='1161'> +7.9192830e+01 </wgt>
<wgt id='1162'> +8.0046998e+01 </wgt>
<wgt id='1163'> +7.5402262e+01 </wgt>
<wgt id='1164'> +7.7032132e+01 </wgt>
<wgt id='1165'> +7.8009673e+01 </wgt>
<wgt id='1166'> +7.4984393e+01 </wgt>
<wgt id='1167'> +7.7665496e+01 </wgt>
<wgt id='1168'> +7.9123994e+01 </wgt>
<wgt id='1169'> +8.4510308e+01 </wgt>
<wgt id='1170'> +7.8914638e+01 </wgt>
<wgt id='1171'> +7.9741478e+01 </wgt>
<wgt id='1172'> +7.8545221e+01 </wgt>
<wgt id='1173'> +7.4116965e+01 </wgt>
<wgt id='1174'> +7.8969980e+01 </wgt>
<wgt id='1175'> +7.8247384e+01 </wgt>
<wgt id='1176'> +8.0731242e+01 </wgt>
<wgt id='1177'> +8.0789128e+01 </wgt>
<wgt id='1178'> +8.0157008e+01 </wgt>
<wgt id='1179'> +7.8502225e+01 </wgt>
<wgt id='1180'> +7.6273783e+01 </wgt>
<wgt id='1181'> +8.1429800e+01 </wgt>
<wgt id='1182'> +8.0080568e+01 </wgt>
<wgt id='1183'> +7.5261154e+01 </wgt>
<wgt id='1184'> +7.6952004e+01 </wgt>
<wgt id='1185'> +8.0147965e+01 </wgt>
<wgt id='1186'> +7.8935092e+01 </wgt>
<wgt id='1187'> +7.1177449e+01 </wgt>
<wgt id='1188'> +7.5390893e+01 </wgt>
<wgt id='1189'> +7.7960241e+01 </wgt>
<wgt id='1190'> +8.3600487e+01 </wgt>
<wgt id='1191'> +7.7046036e+01 </wgt>
<wgt id='1192'> +7.3547716e+01 </wgt>
<wgt id='1193'> +7.8132826e+01 </wgt>
<wgt id='1194'> +8.1524741e+01 </wgt>
<wgt id='1195'> +7.9907986e+01 </wgt>
<wgt id='1196'> +7.8017115e+01 </wgt>
<wgt id='1197'> +7.4249141e+01 </wgt>
<wgt id='1198'> +7.9276992e+01 </wgt>
<wgt id='1199'> +7.6926454e+01 </wgt>
<wgt id='1200'> +8.2079444e+01 </wgt>
<wgt id='1201'> +7.5907088e+01 </wgt>
<wgt id='1202'> +7.9995126e+01 </wgt>
<wgt id='1203'> +6.7550015e+01 </wgt>
<wgt id='1204'> +7.4515668e+01 </wgt>
<wgt id='1205'> +7.6380260e+01 </wgt>
<wgt id='1206'> +6.8631646e+01 </wgt>
<wgt id='1207'> +7.7154094e+01 </wgt>
<wgt id='1208'> +7.6096275e+01 </wgt>
<wgt id='1209'> +7.8157516e+01 </wgt>
<wgt id='1210'> +7.6788594e+01 </wgt>
<wgt id='1211'> +8.2927698e+01 </wgt>
<wgt id='1212'> +8.3208230e+01 </wgt>
<wgt id='1213'> +8.3270070e+01 </wgt>
<wgt id='1214'> +7.8198166e+01 </wgt>
<wgt id='1215'> +7.4259746e+01 </wgt>
<wgt id='1216'> +8.0847558e+01 </wgt>
<wgt id='1217'> +8.1024788e+01 </wgt>
<wgt id='1218'> +8.0497875e+01 </wgt>
<wgt id='1219'> +8.0933459e+01 </wgt>
<wgt id='1220'> +8.1265131e+01 </wgt>
<wgt id='1221'> +8.0580122e+01 </wgt>
<wgt id='1222'> +8.0971517e+01 </wgt>
<wgt id='1223'> +8.0366137e+01 </wgt>
<wgt id='1224'> +8.0272748e+01 </wgt>
<wgt id='1225'> +8.0413119e+01 </wgt>
<wgt id='1226'> +8.0307161e+01 </wgt>
<wgt id='1227'> +8.1164679e+01 </wgt>
<wgt id='1228'> +8.1007539e+01 </wgt>
<wgt id='1229'> +8.0564890e+01 </wgt>
<wgt id='1230'> +8.1279914e+01 </wgt>
<wgt id='1231'> +8.0570558e+01 </wgt>
<wgt id='1232'> +8.0666193e+01 </wgt>
<wgt id='1233'> +8.0698477e+01 </wgt>
<wgt id='1234'> +8.0718929e+01 </wgt>
<wgt id='1235'> +8.0790055e+01 </wgt>
<wgt id='1236'> +8.0838843e+01 </wgt>
<wgt id='1237'> +8.1139575e+01 </wgt>
<wgt id='1238'> +8.0837341e+01 </wgt>
<wgt id='1239'> +8.1188645e+01 </wgt>
<wgt id='1240'> +8.0863569e+01 </wgt>
<wgt id='1241'> +8.0648823e+01 </wgt>
<wgt id='1242'> +8.0627978e+01 </wgt>
<wgt id='1243'> +8.1273818e+01 </wgt>
<wgt id='1244'> +8.0821232e+01 </wgt>
<wgt id='1245'> +8.1114857e+01 </wgt>
<wgt id='1246'> +8.1392349e+01 </wgt>
<wgt id='1247'> +8.1261288e+01 </wgt>
<wgt id='1248'> +8.0167837e+01 </wgt>
<wgt id='1249'> +8.0915512e+01 </wgt>
<wgt id='1250'> +8.0857908e+01 </wgt>
<wgt id='1251'> +8.0151075e+01 </wgt>
<wgt id='1252'> +8.0102211e+01 </wgt>
<wgt id='1253'> +8.0804731e+01 </wgt>
<wgt id='1254'> +8.0279618e+01 </wgt>
<wgt id='1255'> +8.0725657e+01 </wgt>
<wgt id='1256'> +8.0775131e+01 </wgt>
<wgt id='1257'> +8.0069491e+01 </wgt>
<wgt id='1258'> +8.0756450e+01 </wgt>
<wgt id='1259'> +8.1575432e+01 </wgt>
<wgt id='1260'> +8.0468858e+01 </wgt>
<wgt id='1261'> +8.0700831e+01 </wgt>
<wgt id='1262'> +8.0582877e+01 </wgt>
<wgt id='1263'> +8.1170174e+01 </wgt>
<wgt id='1264'> +8.1021397e+01 </wgt>
<wgt id='1265'> +8.0840848e+01 </wgt>
<wgt id='1266'> +8.1351879e+01 </wgt>
<wgt id='1267'> +8.1164373e+01 </wgt>
<wgt id='1268'> +8.0826071e+01 </wgt>
<wgt id='1269'> +8.0560337e+01 </wgt>
<wgt id='1270'> +8.0844825e+01 </wgt>
<wgt id='1271'> +8.0931439e+01 </wgt>
<wgt id='1272'> +8.0765366e+01 </wgt>
<wgt id='1273'> +8.0560484e+01 </wgt>
<wgt id='1274'> +8.0121315e+01 </wgt>
<wgt id='1275'> +8.0732748e+01 </wgt>
<wgt id='1276'> +8.0888982e+01 </wgt>
<wgt id='1277'> +8.1056008e+01 </wgt>
<wgt id='1278'> +8.1172487e+01 </wgt>
<wgt id='1279'> +8.1122473e+01 </wgt>
<wgt id='1280'> +8.1000683e+01 </wgt>
<wgt id='1281'> +8.0903744e+01 </wgt>
<wgt id='1282'> +8.0977693e+01 </wgt>
<wgt id='1283'> +8.1161789e+01 </wgt>
<wgt id='1284'> +8.0991889e+01 </wgt>
<wgt id='1285'> +8.0916716e+01 </wgt>
<wgt id='1286'> +8.1072547e+01 </wgt>
<wgt id='1287'> +8.0733893e+01 </wgt>
<wgt id='1288'> +8.1134144e+01 </wgt>
<wgt id='1289'> +8.0754988e+01 </wgt>
<wgt id='1290'> +8.0683309e+01 </wgt>
<wgt id='1291'> +8.0588128e+01 </wgt>
<wgt id='1292'> +8.0869123e+01 </wgt>
<wgt id='1293'> +8.0718316e+01 </wgt>
<wgt id='1294'> +8.0881682e+01 </wgt>
<wgt id='1295'> +8.0656972e+01 </wgt>
<wgt id='1296'> +8.0727190e+01 </wgt>
<wgt id='1297'> +8.0888642e+01 </wgt>
<wgt id='1298'> +8.0970797e+01 </wgt>
<wgt id='1299'> +8.0824890e+01 </wgt>
<wgt id='1300'> +8.0675894e+01 </wgt>
<wgt id='1301'> +8.0837305e+01 </wgt>
<wgt id='1302'> +8.0774739e+01 </wgt>
<wgt id='1303'> +8.0957619e+01 </wgt>
<wgt id='1304'> +8.0902023e+01 </wgt>
<wgt id='1305'> +8.1289944e+01 </wgt>
<wgt id='1306'> +8.0762746e+01 </wgt>
<wgt id='1307'> +8.1011963e+01 </wgt>
<wgt id='1308'> +8.0866533e+01 </wgt>
<wgt id='1309'> +8.0555092e+01 </wgt>
<wgt id='1310'> +8.0769546e+01 </wgt>
<wgt id='1311'> +8.1076954e+01 </wgt>
<wgt id='1312'> +8.0701472e+01 </wgt>
<wgt id='1313'> +8.0695076e+01 </wgt>
<wgt id='1314'> +8.0852525e+01 </wgt>
<wgt id='1315'> +8.1020232e+01 </wgt>
<wgt id='1316'> +8.0979976e+01 </wgt>
<wgt id='1317'> +8.1286324e+01 </wgt>
<wgt id='1318'> +8.1417046e+01 </wgt>
<wgt id='1319'> +1.1285457e+02 </wgt>
<wgt id='1320'> +7.5487373e+01 </wgt>
<wgt id='1321'> +7.5129973e+01 </wgt>
<wgt id='1322'> +7.7796113e+01 </wgt>
<wgt id='1323'> +7.4407578e+01 </wgt>
<wgt id='1324'> +7.6108302e+01 </wgt>
<wgt id='1325'> +7.6594846e+01 </wgt>
<wgt id='1326'> +7.5053387e+01 </wgt>
<wgt id='1327'> +7.5825951e+01 </wgt>
<wgt id='1328'> +7.4229775e+01 </wgt>
<wgt id='1329'> +7.3774751e+01 </wgt>
<wgt id='1330'> +7.7450298e+01 </wgt>
<wgt id='1331'> +7.2553543e+01 </wgt>
<wgt id='1332'> +7.7552834e+01 </wgt>
<wgt id='1333'> +7.6375912e+01 </wgt>
<wgt id='1334'> +7.3847753e+01 </wgt>
<wgt id='1335'> +7.7683596e+01 </wgt>
<wgt id='1336'> +7.2490843e+01 </wgt>
<wgt id='1337'> +7.7058264e+01 </wgt>
<wgt id='1338'> +7.3587331e+01 </wgt>
<wgt id='1339'> +7.5836437e+01 </wgt>
<wgt id='1340'> +7.5144276e+01 </wgt>
<wgt id='1341'> +7.5775388e+01 </wgt>
<wgt id='1342'> +7.5007397e+01 </wgt>
<wgt id='1343'> +7.3783869e+01 </wgt>
<wgt id='1344'> +7.7040983e+01 </wgt>
<wgt id='1345'> +7.4426993e+01 </wgt>
<wgt id='1346'> +7.6433230e+01 </wgt>
<wgt id='1347'> +7.5073255e+01 </wgt>
<wgt id='1348'> +7.6059009e+01 </wgt>
<wgt id='1349'> +7.6669535e+01 </wgt>
<wgt id='1350'> +7.5070058e+01 </wgt>
<wgt id='1351'> +7.5431346e+01 </wgt>
<wgt id='1352'> +7.5553767e+01 </wgt>
<wgt id='1353'> +7.5024097e+01 </wgt>
<wgt id='1354'> +7.6561068e+01 </wgt>
<wgt id='1355'> +7.8646151e+01 </wgt>
<wgt id='1356'> +7.2489902e+01 </wgt>
<wgt id='1357'> +7.5642124e+01 </wgt>
<wgt id='1358'> +7.4734313e+01 </wgt>
<wgt id='1359'> +7.2645640e+01 </wgt>
<wgt id='1360'> +7.6946330e+01 </wgt>
<wgt id='1361'> +7.5105648e+01 </wgt>
<wgt id='1362'> +7.6054512e+01 </wgt>
<wgt id='1363'> +7.6113446e+01 </wgt>
<wgt id='1364'> +7.4061112e+01 </wgt>
<wgt id='1365'> +7.5627229e+01 </wgt>
<wgt id='1366'> +7.4341600e+01 </wgt>
<wgt id='1367'> +7.4537817e+01 </wgt>
<wgt id='1368'> +7.4986591e+01 </wgt>
<wgt id='1369'> +7.5264434e+01 </wgt>
<wgt id='1370'> +7.4789281e+01 </wgt>
<wgt id='1371'> +7.4193044e+01 </wgt>
<wgt id='1372'> +7.3975273e+01 </wgt>
<wgt id='1373'> +7.4255823e+01 </wgt>
<wgt id='1374'> +7.4972906e+01 </wgt>
<wgt id='1375'> +7.4875540e+01 </wgt>
<wgt id='1376'> +7.6595932e+01 </wgt>
<wgt id='1377'> +7.4801067e+01 </wgt>
<wgt id='1378'> +7.6070604e+01 </wgt>
<wgt id='1379'> +7.1360179e+01 </wgt>
<wgt id='1380'> +7.0977076e+01 </wgt>
<wgt id='1381'> +7.1726189e+01 </wgt>
<wgt id='1382'> +8.6823655e+01 </wgt>
<wgt id='1383'> +8.1629824e+01 </wgt>
<wgt id='1384'> +7.7948629e+01 </wgt>
<wgt id='1385'> +1.0337645e+02 </wgt>
<wgt id='1386'> +1.0376552e+02 </wgt>
<wgt id='1387'> +1.0295041e+02 </wgt>
<wgt id='1388'> +1.0360146e+02 </wgt>
<wgt id='1389'> +1.0298734e+02 </wgt>
<wgt id='1390'> +1.0354407e+02 </wgt>
<wgt id='1391'> +1.0318912e+02 </wgt>
<wgt id='1392'> +1.0394252e+02 </wgt>
<wgt id='1393'> +1.0298916e+02 </wgt>
<wgt id='1394'> +1.0314358e+02 </wgt>
<wgt id='1395'> +1.0367429e+02 </wgt>
<wgt id='1396'> +1.0236717e+02 </wgt>
<wgt id='1397'> +1.0391319e+02 </wgt>
<wgt id='1398'> +1.0300460e+02 </wgt>
<wgt id='1399'> +1.0366466e+02 </wgt>
<wgt id='1400'> +1.0392067e+02 </wgt>
<wgt id='1401'> +1.0296354e+02 </wgt>
<wgt id='1402'> +1.0142188e+02 </wgt>
<wgt id='1403'> +1.0427686e+02 </wgt>
<wgt id='1404'> +1.0382364e+02 </wgt>
<wgt id='1405'> +1.0317322e+02 </wgt>
<wgt id='1406'> +1.0363126e+02 </wgt>
<wgt id='1407'> +1.0292578e+02 </wgt>
<wgt id='1408'> +1.0258295e+02 </wgt>
<wgt id='1409'> +1.0498903e+02 </wgt>
<wgt id='1410'> +1.0346494e+02 </wgt>
<wgt id='1411'> +1.0310869e+02 </wgt>
<wgt id='1412'> +1.0333064e+02 </wgt>
<wgt id='1413'> +1.0332855e+02 </wgt>
<wgt id='1414'> +1.0303139e+02 </wgt>
<wgt id='1415'> +1.0365661e+02 </wgt>
<wgt id='1416'> +1.0276096e+02 </wgt>
<wgt id='1417'> +1.0340626e+02 </wgt>
<wgt id='1418'> +1.0290186e+02 </wgt>
<wgt id='1419'> +1.0442958e+02 </wgt>
<wgt id='1420'> +1.0271785e+02 </wgt>
<wgt id='1421'> +1.0354533e+02 </wgt>
<wgt id='1422'> +1.0220980e+02 </wgt>
<wgt id='1423'> +1.0461521e+02 </wgt>
<wgt id='1424'> +1.0420029e+02 </wgt>
<wgt id='1425'> +1.0197735e+02 </wgt>
<wgt id='1426'> +1.0419494e+02 </wgt>
<wgt id='1427'> +1.0275943e+02 </wgt>
<wgt id='1428'> +1.0251850e+02 </wgt>
<wgt id='1429'> +1.0282492e+02 </wgt>
<wgt id='1430'> +1.0388821e+02 </wgt>
<wgt id='1431'> +1.0330999e+02 </wgt>
<wgt id='1432'> +1.0345215e+02 </wgt>
<wgt id='1433'> +1.0379453e+02 </wgt>
<wgt id='1434'> +1.0210909e+02 </wgt>
<wgt id='1435'> +1.0230986e+02 </wgt>
<wgt id='1436'> +7.7338774e+01 </wgt>
<wgt id='1437'> +7.7324620e+01 </wgt>
<wgt id='1438'> +7.7466829e+01 </wgt>
<wgt id='1439'> +7.7346056e+01 </wgt>
<wgt id='1440'> +7.7008660e+01 </wgt>
<wgt id='1441'> +7.7900619e+01 </wgt>
<wgt id='1442'> +7.7116476e+01 </wgt>
<wgt id='1443'> +7.7193772e+01 </wgt>
<wgt id='1444'> +7.7454651e+01 </wgt>
<wgt id='1445'> +7.7023746e+01 </wgt>
<wgt id='1446'> +7.7702185e+01 </wgt>
<wgt id='1447'> +7.7183411e+01 </wgt>
<wgt id='1448'> +7.7122968e+01 </wgt>
<wgt id='1449'> +7.7409193e+01 </wgt>
<wgt id='1450'> +7.7362106e+01 </wgt>
<wgt id='1451'> +7.7367269e+01 </wgt>
<wgt id='1452'> +7.7463130e+01 </wgt>
<wgt id='1453'> +7.7204695e+01 </wgt>
<wgt id='1454'> +7.7385703e+01 </wgt>
<wgt id='1455'> +7.7437016e+01 </wgt>
<wgt id='1456'> +7.8362887e+01 </wgt>
<wgt id='1457'> +7.7100290e+01 </wgt>
<wgt id='1458'> +7.6927053e+01 </wgt>
<wgt id='1459'> +7.7751331e+01 </wgt>
<wgt id='1460'> +7.7402745e+01 </wgt>
<wgt id='1461'> +7.6666757e+01 </wgt>
<wgt id='1462'> +7.8801121e+01 </wgt>
<wgt id='1463'> +7.5881880e+01 </wgt>
<wgt id='1464'> +7.7716414e+01 </wgt>
<wgt id='1465'> +7.4310342e+01 </wgt>
<wgt id='1466'> +7.7723233e+01 </wgt>
<wgt id='1467'> +7.8246997e+01 </wgt>
<wgt id='1468'> +7.8047848e+01 </wgt>
<wgt id='1469'> +7.8650915e+01 </wgt>
<wgt id='1470'> +7.7695734e+01 </wgt>
<wgt id='1471'> +7.7281361e+01 </wgt>
<wgt id='1472'> +7.7728352e+01 </wgt>
<wgt id='1473'> +7.8281433e+01 </wgt>
<wgt id='1474'> +7.8788023e+01 </wgt>
<wgt id='1475'> +7.7574135e+01 </wgt>
<wgt id='1476'> +7.8859365e+01 </wgt>
<wgt id='1477'> +7.8002860e+01 </wgt>
<wgt id='1478'> +7.7897656e+01 </wgt>
<wgt id='1479'> +7.6729061e+01 </wgt>
<wgt id='1480'> +7.7837480e+01 </wgt>
<wgt id='1481'> +7.8096283e+01 </wgt>
<wgt id='1482'> +7.7537318e+01 </wgt>
<wgt id='1483'> +7.8716292e+01 </wgt>
<wgt id='1484'> +7.7776520e+01 </wgt>
<wgt id='1485'> +7.7721506e+01 </wgt>
<wgt id='1486'> +7.8385680e+01 </wgt>
<wgt id='1487'> +7.7451430e+01 </wgt>
<wgt id='1488'> +7.7760989e+01 </wgt>
<wgt id='1489'> +7.8781587e+01 </wgt>
<wgt id='1490'> +7.7330861e+01 </wgt>
<wgt id='1491'> +7.5619268e+01 </wgt>
<wgt id='1492'> +7.7166187e+01 </wgt>
<wgt id='1493'> +7.8874720e+01 </wgt>
<wgt id='1494'> +7.6603205e+01 </wgt>
<wgt id='1495'> +7.7677919e+01 </wgt>
<wgt id='1496'> +7.8798764e+01 </wgt>
<wgt id='1497'> +7.7589137e+01 </wgt>
<wgt id='1498'> +7.8018120e+01 </wgt>
<wgt id='1499'> +7.8053590e+01 </wgt>
<wgt id='1500'> +7.7724194e+01 </wgt>
<wgt id='1501'> +7.8443769e+01 </wgt>
<wgt id='1502'> +7.7744170e+01 </wgt>
<wgt id='1503'> +7.7384641e+01 </wgt>
<wgt id='1504'> +7.8130337e+01 </wgt>
<wgt id='1505'> +7.8178195e+01 </wgt>
<wgt id='1506'> +7.7674703e+01 </wgt>
<wgt id='1507'> +7.7920170e+01 </wgt>
<wgt id='1508'> +7.8403497e+01 </wgt>
<wgt id='1509'> +7.7657035e+01 </wgt>
<wgt id='1510'> +7.7675054e+01 </wgt>
<wgt id='1511'> +7.8412660e+01 </wgt>
<wgt id='1512'> +7.7418197e+01 </wgt>
<wgt id='1513'> +7.7517053e+01 </wgt>
<wgt id='1514'> +7.7921697e+01 </wgt>
<wgt id='1515'> +7.7580358e+01 </wgt>
<wgt id='1516'> +7.7582193e+01 </wgt>
<wgt id='1517'> +7.7285169e+01 </wgt>
<wgt id='1518'> +7.7473507e+01 </wgt>
<wgt id='1519'> +7.7525860e+01 </wgt>
<wgt id='1520'> +7.7085540e+01 </wgt>
<wgt id='1521'> +7.7691762e+01 </wgt>
<wgt id='1522'> +7.7769874e+01 </wgt>
<wgt id='1523'> +7.7644624e+01 </wgt>
<wgt id='1524'> +7.8242783e+01 </wgt>
<wgt id='1525'> +7.7494034e+01 </wgt>
<wgt id='1526'> +7.7377286e+01 </wgt>
<wgt id='1527'> +7.7547024e+01 </wgt>
<wgt id='1528'> +7.7953185e+01 </wgt>
<wgt id='1529'> +7.7727975e+01 </wgt>
<wgt id='1530'> +7.7649161e+01 </wgt>
<wgt id='1531'> +7.7779299e+01 </wgt>
<wgt id='1532'> +7.8007645e+01 </wgt>
<wgt id='1533'> +7.7450172e+01 </wgt>
<wgt id='1534'> +7.7807970e+01 </wgt>
<wgt id='1535'> +7.7672918e+01 </wgt>
<wgt id='1536'> +7.8044415e+01 </wgt>
<wgt id='1537'> +7.7451391e+01 </wgt>
<wgt id='1538'> +7.7715068e+01 </wgt>
<wgt id='1539'> +7.7639609e+01 </wgt>
<wgt id='1540'> +7.7793445e+01 </wgt>
<wgt id='1541'> +7.7746566e+01 </wgt>
<wgt id='1542'> +7.7667413e+01 </wgt>
<wgt id='1543'> +7.7959676e+01 </wgt>
<wgt id='1544'> +7.7720937e+01 </wgt>
<wgt id='1545'> +7.7865432e+01 </wgt>
<wgt id='1546'> +7.7750821e+01 </wgt>
<wgt id='1547'> +7.7618801e+01 </wgt>
<wgt id='1548'> +7.7754861e+01 </wgt>
<wgt id='1549'> +7.7772881e+01 </wgt>
<wgt id='1550'> +7.7644596e+01 </wgt>
<wgt id='1551'> +7.7691860e+01 </wgt>
<wgt id='1552'> +7.7869661e+01 </wgt>
<wgt id='1553'> +7.7787673e+01 </wgt>
<wgt id='1554'> +7.7615762e+01 </wgt>
<wgt id='1555'> +7.7824927e+01 </wgt>
<wgt id='1556'> +7.7738126e+01 </wgt>
<wgt id='1557'> +7.7708182e+01 </wgt>
<wgt id='1558'> +7.7704958e+01 </wgt>
<wgt id='1559'> +7.7661652e+01 </wgt>
<wgt id='1560'> +7.7735426e+01 </wgt>
<wgt id='1561'> +7.7864358e+01 </wgt>
<wgt id='1562'> +7.7697056e+01 </wgt>
<wgt id='1563'> +7.7639122e+01 </wgt>
<wgt id='1564'> +7.7717163e+01 </wgt>
<wgt id='1565'> +7.7686496e+01 </wgt>
<wgt id='1566'> +7.7727426e+01 </wgt>
<wgt id='1567'> +7.6955255e+01 </wgt>
<wgt id='1568'> +7.8047450e+01 </wgt>
<wgt id='1569'> +7.4640472e+01 </wgt>
<wgt id='1570'> +7.5168626e+01 </wgt>
<wgt id='1571'> +7.4975558e+01 </wgt>
<wgt id='1572'> +7.4182849e+01 </wgt>
<wgt id='1573'> +7.4984401e+01 </wgt>
<wgt id='1574'> +7.4681957e+01 </wgt>
<wgt id='1575'> +7.4230981e+01 </wgt>
<wgt id='1576'> +7.5045232e+01 </wgt>
<wgt id='1577'> +7.4925121e+01 </wgt>
<wgt id='1578'> +7.4663029e+01 </wgt>
<wgt id='1579'> +7.4138079e+01 </wgt>
<wgt id='1580'> +7.4807844e+01 </wgt>
<wgt id='1581'> +7.3836333e+01 </wgt>
<wgt id='1582'> +7.3909101e+01 </wgt>
<wgt id='1583'> +7.4911220e+01 </wgt>
<wgt id='1584'> +7.5784776e+01 </wgt>
<wgt id='1585'> +7.4095227e+01 </wgt>
<wgt id='1586'> +7.4589115e+01 </wgt>
<wgt id='1587'> +7.5363019e+01 </wgt>
<wgt id='1588'> +7.3489969e+01 </wgt>
<wgt id='1589'> +7.3852788e+01 </wgt>
<wgt id='1590'> +7.5356836e+01 </wgt>
<wgt id='1591'> +7.3864793e+01 </wgt>
<wgt id='1592'> +7.4556067e+01 </wgt>
<wgt id='1593'> +7.5187855e+01 </wgt>
<wgt id='1594'> +7.5296346e+01 </wgt>
<wgt id='1595'> +7.4784711e+01 </wgt>
<wgt id='1596'> +7.4171978e+01 </wgt>
<wgt id='1597'> +7.4385273e+01 </wgt>
<wgt id='1598'> +7.4512357e+01 </wgt>
<wgt id='1599'> +7.4634030e+01 </wgt>
<wgt id='1600'> +7.3435251e+01 </wgt>
<wgt id='1601'> +7.4534024e+01 </wgt>
<wgt id='1602'> +7.3602875e+01 </wgt>
<wgt id='1603'> +7.4125718e+01 </wgt>
<wgt id='1604'> +7.5316035e+01 </wgt>
<wgt id='1605'> +7.4837630e+01 </wgt>
<wgt id='1606'> +7.4267594e+01 </wgt>
<wgt id='1607'> +7.4350859e+01 </wgt>
<wgt id='1608'> +7.5438785e+01 </wgt>
<wgt id='1609'> +7.4585166e+01 </wgt>
<wgt id='1610'> +7.4520644e+01 </wgt>
<wgt id='1611'> +7.4693948e+01 </wgt>
<wgt id='1612'> +7.4231056e+01 </wgt>
<wgt id='1613'> +7.4654849e+01 </wgt>
<wgt id='1614'> +7.4834580e+01 </wgt>
<wgt id='1615'> +7.4606010e+01 </wgt>
<wgt id='1616'> +7.4461531e+01 </wgt>
<wgt id='1617'> +7.4786390e+01 </wgt>
<wgt id='1618'> +7.5048338e+01 </wgt>
<wgt id='1619'> +7.4733573e+01 </wgt>
<wgt id='1620'> +7.4672624e+01 </wgt>
<wgt id='1621'> +7.4564930e+01 </wgt>
<wgt id='1622'> +7.3961322e+01 </wgt>
<wgt id='1623'> +7.4578568e+01 </wgt>
<wgt id='1624'> +7.4706715e+01 </wgt>
<wgt id='1625'> +7.4936217e+01 </wgt>
<wgt id='1626'> +7.4702681e+01 </wgt>
<wgt id='1627'> +7.4484408e+01 </wgt>
<wgt id='1628'> +7.4453278e+01 </wgt>
<wgt id='1629'> +7.4371521e+01 </wgt>
<wgt id='1630'> +7.4630177e+01 </wgt>
<wgt id='1631'> +7.4975981e+01 </wgt>
<wgt id='1632'> +7.5289509e+01 </wgt>
<wgt id='1633'> +7.4595158e+01 </wgt>
<wgt id='1634'> +7.4283759e+01 </wgt>
<wgt id='1635'> +7.5039702e+01 </wgt>
<wgt id='1636'> +7.4762174e+01 </wgt>
<wgt id='1637'> +7.4604428e+01 </wgt>
<wgt id='1638'> +7.4685495e+01 </wgt>
<wgt id='1639'> +7.4533528e+01 </wgt>
<wgt id='1640'> +7.4603259e+01 </wgt>
<wgt id='1641'> +7.4847951e+01 </wgt>
<wgt id='1642'> +7.4305319e+01 </wgt>
<wgt id='1643'> +7.4576857e+01 </wgt>
<wgt id='1644'> +7.4653662e+01 </wgt>
<wgt id='1645'> +7.4475277e+01 </wgt>
<wgt id='1646'> +7.4548886e+01 </wgt>
<wgt id='1647'> +7.4709608e+01 </wgt>
<wgt id='1648'> +7.4538119e+01 </wgt>
<wgt id='1649'> +7.4782467e+01 </wgt>
<wgt id='1650'> +7.4543151e+01 </wgt>
<wgt id='1651'> +7.4606148e+01 </wgt>
<wgt id='1652'> +7.4457247e+01 </wgt>
<wgt id='1653'> +7.4696983e+01 </wgt>
<wgt id='1654'> +7.4674146e+01 </wgt>
<wgt id='1655'> +7.4735063e+01 </wgt>
<wgt id='1656'> +7.4543906e+01 </wgt>
<wgt id='1657'> +7.4713801e+01 </wgt>
<wgt id='1658'> +7.4652246e+01 </wgt>
<wgt id='1659'> +7.4640153e+01 </wgt>
<wgt id='1660'> +7.4716901e+01 </wgt>
<wgt id='1661'> +7.4698721e+01 </wgt>
<wgt id='1662'> +7.4605342e+01 </wgt>
<wgt id='1663'> +7.4581723e+01 </wgt>
<wgt id='1664'> +7.4677890e+01 </wgt>
<wgt id='1665'> +7.4508986e+01 </wgt>
<wgt id='1666'> +7.4599637e+01 </wgt>
<wgt id='1667'> +7.4653247e+01 </wgt>
<wgt id='1668'> +7.4633212e+01 </wgt>
<wgt id='1669'> +7.4606923e+01 </wgt>
<wgt id='1670'> +7.4324755e+01 </wgt>
<wgt id='1671'> +7.4877481e+01 </wgt>
<wgt id='1672'> +7.7732456e+01 </wgt>
<wgt id='1673'> +8.0300495e+01 </wgt>
<wgt id='1674'> +7.7497232e+01 </wgt>
<wgt id='1675'> +7.7621999e+01 </wgt>
<wgt id='1676'> +7.8641075e+01 </wgt>
<wgt id='1677'> +7.8691027e+01 </wgt>
<wgt id='1678'> +7.9121591e+01 </wgt>
<wgt id='1679'> +7.7493971e+01 </wgt>
<wgt id='1680'> +7.7492590e+01 </wgt>
<wgt id='1681'> +7.7636731e+01 </wgt>
<wgt id='1682'> +7.7795237e+01 </wgt>
<wgt id='1683'> +7.7623325e+01 </wgt>
<wgt id='1684'> +7.6643612e+01 </wgt>
<wgt id='1685'> +7.7465366e+01 </wgt>
<wgt id='1686'> +7.7785663e+01 </wgt>
<wgt id='1687'> +7.6265513e+01 </wgt>
<wgt id='1688'> +7.7829974e+01 </wgt>
<wgt id='1689'> +7.7025551e+01 </wgt>
<wgt id='1690'> +7.7255529e+01 </wgt>
<wgt id='1691'> +7.7566876e+01 </wgt>
<wgt id='1692'> +7.8100019e+01 </wgt>
<wgt id='1693'> +7.7611468e+01 </wgt>
<wgt id='1694'> +7.8008095e+01 </wgt>
<wgt id='1695'> +7.7749352e+01 </wgt>
<wgt id='1696'> +7.8362202e+01 </wgt>
<wgt id='1697'> +7.7535438e+01 </wgt>
<wgt id='1698'> +7.7758891e+01 </wgt>
<wgt id='1699'> +7.6778247e+01 </wgt>
<wgt id='1700'> +7.7889088e+01 </wgt>
<wgt id='1701'> +7.7475818e+01 </wgt>
<wgt id='1702'> +7.7609896e+01 </wgt>
<wgt id='1703'> +7.6955255e+01 </wgt>
<wgt id='1704'> +7.8047450e+01 </wgt>
<wgt id='1705'> +7.4649872e+01 </wgt>
<wgt id='1706'> +7.5552772e+01 </wgt>
<wgt id='1707'> +7.5615299e+01 </wgt>
<wgt id='1708'> +7.4484020e+01 </wgt>
<wgt id='1709'> +7.5081618e+01 </wgt>
<wgt id='1710'> +7.4532106e+01 </wgt>
<wgt id='1711'> +7.4573760e+01 </wgt>
<wgt id='1712'> +7.4264658e+01 </wgt>
<wgt id='1713'> +7.5562798e+01 </wgt>
<wgt id='1714'> +7.2915103e+01 </wgt>
<wgt id='1715'> +7.5262844e+01 </wgt>
<wgt id='1716'> +7.5600537e+01 </wgt>
<wgt id='1717'> +7.4803714e+01 </wgt>
<wgt id='1718'> +7.5512910e+01 </wgt>
<wgt id='1719'> +7.4629906e+01 </wgt>
<wgt id='1720'> +7.5964213e+01 </wgt>
<wgt id='1721'> +7.5071300e+01 </wgt>
<wgt id='1722'> +7.4944947e+01 </wgt>
<wgt id='1723'> +7.4711152e+01 </wgt>
<wgt id='1724'> +7.4017142e+01 </wgt>
<wgt id='1725'> +7.4411514e+01 </wgt>
<wgt id='1726'> +7.4430594e+01 </wgt>
<wgt id='1727'> +7.5056047e+01 </wgt>
<wgt id='1728'> +7.4626331e+01 </wgt>
<wgt id='1729'> +7.4454664e+01 </wgt>
<wgt id='1730'> +7.4725610e+01 </wgt>
<wgt id='1731'> +7.3698234e+01 </wgt>
<wgt id='1732'> +7.4452361e+01 </wgt>
<wgt id='1733'> +7.4265206e+01 </wgt>
<wgt id='1734'> +7.5025107e+01 </wgt>
<wgt id='1735'> +7.4759116e+01 </wgt>
<wgt id='1736'> +7.4324755e+01 </wgt>
<wgt id='1737'> +7.4877481e+01 </wgt>
<wgt id='1738'> +5.6609970e+01 </wgt>
<wgt id='1739'> +5.6706919e+01 </wgt>
<wgt id='1740'> +5.6513023e+01 </wgt>
<wgt id='1741'> +5.6520787e+01 </wgt>
<wgt id='1742'> +5.6698223e+01 </wgt>
<wgt id='1743'> +5.6715585e+01 </wgt>
<wgt id='1744'> +5.6504424e+01 </wgt>
<wgt id='1745'> +5.6187914e+01 </wgt>
<wgt id='1746'> +5.7027154e+01 </wgt>
<wgt id='1747'> +5.6951263e+01 </wgt>
<wgt id='1748'> +5.6269836e+01 </wgt>
<wgt id='1749'> +5.6781612e+01 </wgt>
<wgt id='1750'> +5.6432644e+01 </wgt>
<wgt id='1751'> +5.6722390e+01 </wgt>
<wgt id='1752'> +5.6495582e+01 </wgt>
<wgt id='1753'> +5.6641235e+01 </wgt>
<wgt id='1754'> +5.6588084e+01 </wgt>
<wgt id='1755'> +5.6454659e+01 </wgt>
<wgt id='1756'> +5.6720791e+01 </wgt>
<wgt id='1757'> +5.6920739e+01 </wgt>
<wgt id='1758'> +5.6310572e+01 </wgt>
<wgt id='1759'> +5.5435975e+01 </wgt>
<wgt id='1760'> +5.7768382e+01 </wgt>
<wgt id='1761'> +5.9542580e+01 </wgt>
<wgt id='1762'> +5.3833256e+01 </wgt>
<wgt id='1763'> +5.6699448e+01 </wgt>
<wgt id='1764'> +5.6587028e+01 </wgt>
<wgt id='1765'> +5.6321445e+01 </wgt>
<wgt id='1766'> +5.6960311e+01 </wgt>
<wgt id='1767'> +5.6609970e+01 </wgt>
<wgt id='1768'> +6.2412288e+01 </wgt>
<wgt id='1769'> +5.0630785e+01 </wgt>
<wgt id='1770'> +7.6836938e+01 </wgt>
<wgt id='1771'> +7.4401930e+01 </wgt>
<wgt id='1772'> +5.5645117e+01 </wgt>
<wgt id='1773'> +5.6626120e+01 </wgt>
<wgt id='1774'> +5.6601922e+01 </wgt>
<wgt id='1775'> +5.6464627e+01 </wgt>
<wgt id='1776'> +5.6366166e+01 </wgt>
<wgt id='1777'> +5.6666971e+01 </wgt>
<wgt id='1778'> +5.6527570e+01 </wgt>
<wgt id='1779'> +5.6682790e+01 </wgt>
<wgt id='1780'> +5.4090170e+01 </wgt>
<wgt id='1781'> +4.8515610e+01 </wgt>
<wgt id='1782'> +4.8547908e+01 </wgt>
<wgt id='1783'> +4.8439834e+01 </wgt>
<wgt id='1784'> +4.8431344e+01 </wgt>
<wgt id='1785'> +4.8555945e+01 </wgt>
<wgt id='1786'> +4.8577040e+01 </wgt>
<wgt id='1787'> +4.8410721e+01 </wgt>
<wgt id='1788'> +4.8180918e+01 </wgt>
<wgt id='1789'> +4.8801891e+01 </wgt>
<wgt id='1790'> +4.8672202e+01 </wgt>
<wgt id='1791'> +4.8315614e+01 </wgt>
<wgt id='1792'> +4.8569564e+01 </wgt>
<wgt id='1793'> +4.8419396e+01 </wgt>
<wgt id='1794'> +4.8416810e+01 </wgt>
<wgt id='1795'> +4.8571934e+01 </wgt>
<wgt id='1796'> +4.8528161e+01 </wgt>
<wgt id='1797'> +4.8476913e+01 </wgt>
<wgt id='1798'> +4.8452447e+01 </wgt>
<wgt id='1799'> +4.8527608e+01 </wgt>
<wgt id='1800'> +4.8461839e+01 </wgt>
<wgt id='1801'> +4.8525545e+01 </wgt>
<wgt id='1802'> +4.9101903e+01 </wgt>
<wgt id='1803'> +4.7836693e+01 </wgt>
<wgt id='1804'> +5.0177818e+01 </wgt>
<wgt id='1805'> +4.6956792e+01 </wgt>
<wgt id='1806'> +5.2410432e+01 </wgt>
<wgt id='1807'> +4.5189467e+01 </wgt>
<wgt id='1808'> +5.1170557e+01 </wgt>
<wgt id='1809'> +4.6185487e+01 </wgt>
<wgt id='1810'> +4.8516659e+01 </wgt>
<wgt id='1811'> +5.3621455e+01 </wgt>
<wgt id='1812'> +4.3868940e+01 </wgt>
<wgt id='1813'> +6.4263894e+01 </wgt>
<wgt id='1814'> +5.9900056e+01 </wgt>
<wgt id='1815'> +5.2742690e+01 </wgt>
<wgt id='1816'> +4.9960068e+01 </wgt>
<wgt id='1817'> +4.8425227e+01 </wgt>
<wgt id='1818'> +4.7545108e+01 </wgt>
<wgt id='1819'> +5.0729845e+01 </wgt>
<wgt id='1820'> +5.3917559e+01 </wgt>
<wgt id='1821'> +5.1888374e+01 </wgt>
<wgt id='1822'> +4.4961101e+01 </wgt>
<wgt id='1823'> +4.8348201e+01 </wgt>
<wgt id='1824'> +7.4664857e+01 </wgt>
<wgt id='1825'> +7.4624623e+01 </wgt>
<wgt id='1826'> +7.4584147e+01 </wgt>
<wgt id='1827'> +7.4543882e+01 </wgt>
<wgt id='1828'> +7.4503529e+01 </wgt>
<wgt id='1829'> +7.4462876e+01 </wgt>
<wgt id='1830'> +7.4422777e+01 </wgt>
<wgt id='1831'> +7.4382304e+01 </wgt>
<wgt id='1832'> +7.4342240e+01 </wgt>
<wgt id='1833'> +7.4301619e+01 </wgt>
<wgt id='1834'> +7.4261414e+01 </wgt>
<wgt id='1835'> +7.4221133e+01 </wgt>
<wgt id='1836'> +7.4180965e+01 </wgt>
<wgt id='1837'> +7.4140416e+01 </wgt>
<wgt id='1838'> +7.4100281e+01 </wgt>
<wgt id='1839'> +7.4059969e+01 </wgt>
<wgt id='1840'> +7.4019475e+01 </wgt>
<wgt id='1841'> +7.3979284e+01 </wgt>
<wgt id='1842'> +7.3939086e+01 </wgt>
<wgt id='1843'> +7.3898926e+01 </wgt>
<wgt id='1844'> +7.3858394e+01 </wgt>
<wgt id='1845'> +7.3818360e+01 </wgt>
<wgt id='1846'> +7.3778061e+01 </wgt>
<wgt id='1847'> +7.3737960e+01 </wgt>
<wgt id='1848'> +7.3697471e+01 </wgt>
<wgt id='1849'> +7.3657543e+01 </wgt>
<wgt id='1850'> +7.3617224e+01 </wgt>
<wgt id='1851'> +7.3576677e+01 </wgt>
<wgt id='1852'> +7.3536726e+01 </wgt>
<wgt id='1853'> +7.3496444e+01 </wgt>
<wgt id='1854'> +7.3456413e+01 </wgt>
<wgt id='1855'> +7.4084546e+01 </wgt>
<wgt id='1856'> +7.4601826e+01 </wgt>
<wgt id='1857'> +7.4415794e+01 </wgt>
<wgt id='1858'> +7.3630822e+01 </wgt>
<wgt id='1859'> +7.4425370e+01 </wgt>
<wgt id='1860'> +7.4127386e+01 </wgt>
<wgt id='1861'> +7.3683796e+01 </wgt>
<wgt id='1862'> +7.4491141e+01 </wgt>
<wgt id='1863'> +7.4367034e+01 </wgt>
<wgt id='1864'> +7.4106977e+01 </wgt>
<wgt id='1865'> +7.3584393e+01 </wgt>
<wgt id='1866'> +7.4258668e+01 </wgt>
<wgt id='1867'> +7.3288437e+01 </wgt>
<wgt id='1868'> +7.3360216e+01 </wgt>
<wgt id='1869'> +7.4351756e+01 </wgt>
<wgt id='1870'> +7.5209563e+01 </wgt>
<wgt id='1871'> +7.3551077e+01 </wgt>
<wgt id='1872'> +7.4030380e+01 </wgt>
<wgt id='1873'> +7.4800680e+01 </wgt>
<wgt id='1874'> +7.2947476e+01 </wgt>
<wgt id='1875'> +7.3308371e+01 </wgt>
<wgt id='1876'> +7.4790634e+01 </wgt>
<wgt id='1877'> +7.3315581e+01 </wgt>
<wgt id='1878'> +7.4000583e+01 </wgt>
<wgt id='1879'> +7.4624158e+01 </wgt>
<wgt id='1880'> +7.4731060e+01 </wgt>
<wgt id='1881'> +7.4222327e+01 </wgt>
<wgt id='1882'> +7.3625301e+01 </wgt>
<wgt id='1883'> +7.3834363e+01 </wgt>
<wgt id='1884'> +7.3955646e+01 </wgt>
<wgt id='1885'> +7.4075869e+01 </wgt>
<wgt id='1886'> +7.2893834e+01 </wgt>
<wgt id='1887'> +7.3976935e+01 </wgt>
<wgt id='1888'> +7.3052816e+01 </wgt>
<wgt id='1889'> +7.3573385e+01 </wgt>
<wgt id='1890'> +7.4754876e+01 </wgt>
<wgt id='1891'> +7.4279009e+01 </wgt>
<wgt id='1892'> +7.3714242e+01 </wgt>
<wgt id='1893'> +7.3795543e+01 </wgt>
<wgt id='1894'> +7.4874096e+01 </wgt>
<wgt id='1895'> +7.4028494e+01 </wgt>
<wgt id='1896'> +7.3964806e+01 </wgt>
<wgt id='1897'> +7.4136266e+01 </wgt>
<wgt id='1898'> +7.3680249e+01 </wgt>
<wgt id='1899'> +7.4099235e+01 </wgt>
<wgt id='1900'> +7.4276607e+01 </wgt>
<wgt id='1901'> +7.4050547e+01 </wgt>
<wgt id='1902'> +7.3906656e+01 </wgt>
<wgt id='1903'> +7.4230657e+01 </wgt>
<wgt id='1904'> +7.4489435e+01 </wgt>
<wgt id='1905'> +7.4177990e+01 </wgt>
<wgt id='1906'> +7.4116512e+01 </wgt>
<wgt id='1907'> +7.4009960e+01 </wgt>
<wgt id='1908'> +7.3409571e+01 </wgt>
<wgt id='1909'> +7.4024631e+01 </wgt>
<wgt id='1910'> +7.4151699e+01 </wgt>
<wgt id='1911'> +7.4376834e+01 </wgt>
<wgt id='1912'> +7.4146186e+01 </wgt>
<wgt id='1913'> +7.3931503e+01 </wgt>
<wgt id='1914'> +7.3900717e+01 </wgt>
<wgt id='1915'> +7.3819239e+01 </wgt>
<wgt id='1916'> +7.4075123e+01 </wgt>
<wgt id='1917'> +7.4415759e+01 </wgt>
<wgt id='1918'> +7.4726337e+01 </wgt>
<wgt id='1919'> +7.4040052e+01 </wgt>
<wgt id='1920'> +7.3730998e+01 </wgt>
<wgt id='1921'> +7.4480138e+01 </wgt>
<wgt id='1922'> +7.4205465e+01 </wgt>
<wgt id='1923'> +7.4049410e+01 </wgt>
<wgt id='1924'> +7.4129597e+01 </wgt>
<wgt id='1925'> +7.3977744e+01 </wgt>
<wgt id='1926'> +7.4048593e+01 </wgt>
<wgt id='1927'> +7.4289518e+01 </wgt>
<wgt id='1928'> +7.3751403e+01 </wgt>
<wgt id='1929'> +7.4021796e+01 </wgt>
<wgt id='1930'> +7.4097387e+01 </wgt>
<wgt id='1931'> +7.3922182e+01 </wgt>
<wgt id='1932'> +7.3994541e+01 </wgt>
<wgt id='1933'> +7.4154050e+01 </wgt>
<wgt id='1934'> +7.3982311e+01 </wgt>
<wgt id='1935'> +7.4225063e+01 </wgt>
<wgt id='1936'> +7.3988094e+01 </wgt>
<wgt id='1937'> +7.4050453e+01 </wgt>
<wgt id='1938'> +7.3903982e+01 </wgt>
<wgt id='1939'> +7.4140133e+01 </wgt>
<wgt id='1940'> +7.4117815e+01 </wgt>
<wgt id='1941'> +7.4179326e+01 </wgt>
<wgt id='1942'> +7.3988649e+01 </wgt>
<wgt id='1943'> +7.4155825e+01 </wgt>
<wgt id='1944'> +7.4095671e+01 </wgt>
<wgt id='1945'> +7.4083507e+01 </wgt>
<wgt id='1946'> +7.4158352e+01 </wgt>
<wgt id='1947'> +7.4140909e+01 </wgt>
<wgt id='1948'> +7.4050332e+01 </wgt>
<wgt id='1949'> +7.4026142e+01 </wgt>
<wgt id='1950'> +7.4122165e+01 </wgt>
<wgt id='1951'> +7.3955519e+01 </wgt>
<wgt id='1952'> +7.4044444e+01 </wgt>
<wgt id='1953'> +7.4096306e+01 </wgt>
<wgt id='1954'> +7.4076867e+01 </wgt>
<wgt id='1955'> +7.4051745e+01 </wgt>
<wgt id='1956'> +7.4084044e+01 </wgt>
<wgt id='1957'> +7.4087298e+01 </wgt>
<wgt id='1958'> +7.4085079e+01 </wgt>
<wgt id='1959'> +7.4085165e+01 </wgt>
<wgt id='1960'> +7.4086094e+01 </wgt>
<wgt id='1961'> +7.4084771e+01 </wgt>
<wgt id='1962'> +7.4087893e+01 </wgt>
</rwgt>
</event>
<event npLO=" -1 " npNLO=" 1 ">
 7      1 +1.5146096e+02 1.09383510e+01 7.54677110e-03 1.62682600e-01
       -3 -1    0    0    0  501 +0.0000000000e+00 +0.0000000000e+00 +5.7321442000e+00 5.7321442000e+00 0.0000000000e+00 0.0000e+00 9.0000e+00
       21 -1    0    0  501  502 +0.0000000000e+00 +0.0000000000e+00 -4.5822290000e+02 4.5822290000e+02 0.0000000000e+00 0.0000e+00 9.0000e+00
       23  2    1    2    0    0 +9.4931247000e+00 +5.4339767000e+00 -4.1719331000e+02 4.2700160000e+02 9.0335259000e+01 0.0000e+00 0.0000e+00
       15  1    3    3    0    0 +2.9955338000e+01 +1.3858164000e+01 -1.4767515000e+02 1.5132905000e+02 1.7770000000e+00 0.0000e+00 9.0000e+00
      -15  1    3    3    0    0 -3.7751061000e+01 -1.3070498000e+01 -1.9045213000e+02 1.9460512000e+02 1.7770000000e+00 0.0000e+00 9.0000e+00
       22  1    3    3    0    0 +1.7288848000e+01 +4.6463101000e+00 -7.9066021000e+01 8.1067429000e+01 0.0000000000e+00 0.0000e+00 9.0000e+00
       -3  1    1    2    0  502 -9.4931247000e+00 -5.4339767000e+00 -3.5297446000e+01 3.6953446000e+01 0.0000000000e+00 0.0000e+00 9.0000e+00
#aMCatNLO 1  0  0  0  0 0.00000000E+00 0.00000000E+00 -9  7  0 0.00000000E+00 0.00000000E+00 0.00000000E+00 0.00000000E+00 0.00000000E+00
<rwgt>
<wgt id='1001'> +1.5146000e+02 </wgt>
<wgt id='1002'> +1.5146000e+02 </wgt>
<wgt id='1003'> +1.4574000e+02 </wgt>
<wgt id='1004'> +1.3896000e+02 </wgt>
<wgt id='1005'> +1.4379000e+02 </wgt>
<wgt id='1006'> +1.4309000e+02 </wgt>
<wgt id='1007'> +1.4579000e+02 </wgt>
<wgt id='1008'> +1.5580000e+02 </wgt>
<wgt id='1009'> +1.5208000e+02 </wgt>
<wgt id='1010'> +1.5040000e+02 </wgt>
<wgt id='1011'> +1.5605000e+02 </wgt>
<wgt id='1012'> +1.6124000e+02 </wgt>
<wgt id='1013'> +2.1354000e+02 </wgt>
<wgt id='1014'> +1.4810000e+02 </wgt>
<wgt id='1015'> +1.2895000e+02 </wgt>
<wgt id='1016'> +1.6121000e+02 </wgt>
<wgt id='1017'> +1.5588000e+02 </wgt>
<wgt id='1018'> +1.5626000e+02 </wgt>
<wgt id='1019'> +1.5584000e+02 </wgt>
<wgt id='1020'> +1.5435000e+02 </wgt>
<wgt id='1021'> +1.4890000e+02 </wgt>
<wgt id='1022'> +1.4439000e+02 </wgt>
<wgt id='1023'> +1.4512000e+02 </wgt>
<wgt id='1024'> +1.6928000e+02 </wgt>
<wgt id='1025'> +1.5444000e+02 </wgt>
<wgt id='1026'> +1.4556000e+02 </wgt>
<wgt id='1027'> +1.4657000e+02 </wgt>
<wgt id='1028'> +1.5283000e+02 </wgt>
<wgt id='1029'> +1.4880000e+02 </wgt>
<wgt id='1030'> +1.5349000e+02 </wgt>
<wgt id='1031'> +1.4173000e+02 </wgt>
<wgt id='1032'> +1.4487000e+02 </wgt>
<wgt id='1033'> +1.3170000e+02 </wgt>
<wgt id='1034'> +1.8807000e+02 </wgt>
<wgt id='1035'> +1.3404000e+02 </wgt>
<wgt id='1036'> +1.5334000e+02 </wgt>
<wgt id='1037'> +1.4625000e+02 </wgt>
<wgt id='1038'> +1.4188000e+02 </wgt>
<wgt id='1039'> +1.4987000e+02 </wgt>
<wgt id='1040'> +1.7657000e+02 </wgt>
<wgt id='1041'> +1.4845000e+02 </wgt>
<wgt id='1042'> +1.4567000e+02 </wgt>
<wgt id='1043'> +1.4764000e+02 </wgt>
<wgt id='1044'> +1.4781000e+02 </wgt>
<wgt id='1045'> +1.5521000e+02 </wgt>
<wgt id='1046'> +1.5655000e+02 </wgt>
<wgt id='1047'> +1.4592000e+02 </wgt>
<wgt id='1048'> +1.4729000e+02 </wgt>
<wgt id='1049'> +1.5359000e+02 </wgt>
<wgt id='1050'> +1.4876000e+02 </wgt>
<wgt id='1051'> +1.3727000e+02 </wgt>
<wgt id='1052'> +1.4094000e+02 </wgt>
<wgt id='1053'> +1.4853000e+02 </wgt>
<wgt id='1054'> +1.4684000e+02 </wgt>
<wgt id='1055'> +1.6376000e+02 </wgt>
<wgt id='1056'> +1.5023000e+02 </wgt>
<wgt id='1057'> +1.4870000e+02 </wgt>
<wgt id='1058'> +1.5293000e+02 </wgt>
<wgt id='1059'> +1.3161000e+02 </wgt>
<wgt id='1060'> +1.4942000e+02 </wgt>
<wgt id='1061'> +1.3857000e+02 </wgt>
<wgt id='1062'> +1.4935000e+02 </wgt>
<wgt id='1063'> +1.4151000e+02 </wgt>
<wgt id='1064'> +1.4935000e+02 </wgt>
<wgt id='1065'> +1.4864000e+02 </wgt>
<wgt id='1066'> +1.5974000e+02 </wgt>
<wgt id='1067'> +1.4954000e+02 </wgt>
<wgt id='1068'> +1.4401000e+02 </wgt>
<wgt id='1069'> +1.8237000e+02 </wgt>
<wgt id='1070'> +1.4163000e+02 </wgt>
<wgt id='1071'> +1.5363000e+02 </wgt>
<wgt id='1072'> +1.4941000e+02 </wgt>
<wgt id='1073'> +1.5444000e+02 </wgt>
<wgt id='1074'> +1.8099000e+02 </wgt>
<wgt id='1075'> +1.7389000e+02 </wgt>
<wgt id='1076'> +1.5376000e+02 </wgt>
<wgt id='1077'> +1.4696000e+02 </wgt>
<wgt id='1078'> +2.0257000e+02 </wgt>
<wgt id='1079'> +1.6845000e+02 </wgt>
<wgt id='1080'> +1.5401000e+02 </wgt>
<wgt id='1081'> +1.5939000e+02 </wgt>
<wgt id='1082'> +1.4691000e+02 </wgt>
<wgt id='1083'> +1.5442000e+02 </wgt>
<wgt id='1084'> +1.3766000e+02 </wgt>
<wgt id='1085'> +1.5794000e+02 </wgt>
<wgt id='1086'> +1.4481000e+02 </wgt>
<wgt id='1087'> +1.4938000e+02 </wgt>
<wgt id='1088'> +1.5436000e+02 </wgt>
<wgt id='1089'> +1.5457000e+02 </wgt>
<wgt id='1090'> +1.4646000e+02 </wgt>
<wgt id='1091'> +1.6586000e+02 </wgt>
<wgt id='1092'> +1.4257000e+02 </wgt>
<wgt id='1093'> +1.4536000e+02 </wgt>
<wgt id='1094'> +1.5020000e+02 </wgt>
<wgt id='1095'> +1.4965000e+02 </wgt>
<wgt id='1096'> +1.5476000e+02 </wgt>
<wgt id='1097'> +1.3987000e+02 </wgt>
<wgt id='1098'> +1.5640000e+02 </wgt>
<wgt id='1099'> +1.3830000e+02 </wgt>
<wgt id='1100'> +1.3049000e+02 </wgt>
<wgt id='1101'> +1.3737000e+02 </wgt>
<wgt id='1102'> +1.2976000e+02 </wgt>
<wgt id='1103'> +1.4636000e+02 </wgt>
<wgt id='1104'> +1.5241000e+02 </wgt>
<wgt id='1105'> +1.5146096e+02 </wgt>
<wgt id='1106'> +7.3260421e+01 </wgt>
<wgt id='1107'> +7.5254967e+01 </wgt>
<wgt id='1108'> +8.1738018e+01 </wgt>
<wgt id='1109'> +7.8957001e+01 </wgt>
<wgt id='1110'> +8.1442013e+01 </wgt>
<wgt id='1111'> +6.8352937e+01 </wgt>
<wgt id='1112'> +6.6220936e+01 </wgt>
<wgt id='1113'> +6.7739731e+01 </wgt>
<wgt id='1114'> +7.7264244e+01 </wgt>
<wgt id='1115'> +7.2540397e+01 </wgt>
<wgt id='1116'> +7.8054983e+01 </wgt>
<wgt id='1117'> +7.6985592e+01 </wgt>
<wgt id='1118'> +7.8241015e+01 </wgt>
<wgt id='1119'> +7.5995294e+01 </wgt>
<wgt id='1120'> +7.2644125e+01 </wgt>
<wgt id='1121'> +7.8688547e+01 </wgt>
<wgt id='1122'> +8.0704336e+01 </wgt>
<wgt id='1123'> +7.7317727e+01 </wgt>
<wgt id='1124'> +7.3137106e+01 </wgt>
<wgt id='1125'> +7.5364923e+01 </wgt>
<wgt id='1126'> +8.1086465e+01 </wgt>
<wgt id='1127'> +8.0460636e+01 </wgt>
<wgt id='1128'> +7.5302218e+01 </wgt>
<wgt id='1129'> +7.8470686e+01 </wgt>
<wgt id='1130'> +7.9270611e+01 </wgt>
<wgt id='1131'> +6.4611743e+01 </wgt>
<wgt id='1132'> +8.2016697e+01 </wgt>
<wgt id='1133'> +7.8440719e+01 </wgt>
<wgt id='1134'> +7.9987114e+01 </wgt>
<wgt id='1135'> +7.8098450e+01 </wgt>
<wgt id='1136'> +7.7505839e+01 </wgt>
<wgt id='1137'> +7.6197414e+01 </wgt>
<wgt id='1138'> +8.0787441e+01 </wgt>
<wgt id='1139'> +7.8929854e+01 </wgt>
<wgt id='1140'> +7.5571980e+01 </wgt>
<wgt id='1141'> +6.0756630e+01 </wgt>
<wgt id='1142'> +8.0437728e+01 </wgt>
<wgt id='1143'> +7.2840265e+01 </wgt>
<wgt id='1144'> +6.7699384e+01 </wgt>
<wgt id='1145'> +7.2341026e+01 </wgt>
<wgt id='1146'> +8.1057526e+01 </wgt>
<wgt id='1147'> +7.6568000e+01 </wgt>
<wgt id='1148'> +8.0847899e+01 </wgt>
<wgt id='1149'> +7.2128398e+01 </wgt>
<wgt id='1150'> +7.8800196e+01 </wgt>
<wgt id='1151'> +8.3026828e+01 </wgt>
<wgt id='1152'> +7.2653886e+01 </wgt>
<wgt id='1153'> +8.0901722e+01 </wgt>
<wgt id='1154'> +7.9473421e+01 </wgt>
<wgt id='1155'> +7.6710990e+01 </wgt>
<wgt id='1156'> +8.1209140e+01 </wgt>
<wgt id='1157'> +7.3112742e+01 </wgt>
<wgt id='1158'> +7.4381270e+01 </wgt>
<wgt id='1159'> +8.7213225e+01 </wgt>
<wgt id='1160'> +7.6765392e+01 </wgt>
<wgt id='1161'> +7.7877137e+01 </wgt>
<wgt id='1162'> +8.0004663e+01 </wgt>
<wgt id='1163'> +7.1702389e+01 </wgt>
<wgt id='1164'> +7.3853783e+01 </wgt>
<wgt id='1165'> +7.9402757e+01 </wgt>
<wgt id='1166'> +7.8319756e+01 </wgt>
<wgt id='1167'> +6.8520749e+01 </wgt>
<wgt id='1168'> +7.8292304e+01 </wgt>
<wgt id='1169'> +7.9570447e+01 </wgt>
<wgt id='1170'> +8.0517178e+01 </wgt>
<wgt id='1171'> +7.8749225e+01 </wgt>
<wgt id='1172'> +7.9751625e+01 </wgt>
<wgt id='1173'> +6.5761565e+01 </wgt>
<wgt id='1174'> +7.5933442e+01 </wgt>
<wgt id='1175'> +7.6813646e+01 </wgt>
<wgt id='1176'> +7.9908734e+01 </wgt>
<wgt id='1177'> +6.9035230e+01 </wgt>
<wgt id='1178'> +7.9495885e+01 </wgt>
<wgt id='1179'> +7.7900453e+01 </wgt>
<wgt id='1180'> +7.9249365e+01 </wgt>
<wgt id='1181'> +8.7154544e+01 </wgt>
<wgt id='1182'> +7.1830165e+01 </wgt>
<wgt id='1183'> +7.8100201e+01 </wgt>
<wgt id='1184'> +7.7362949e+01 </wgt>
<wgt id='1185'> +7.1308737e+01 </wgt>
<wgt id='1186'> +8.0173558e+01 </wgt>
<wgt id='1187'> +8.0000992e+01 </wgt>
<wgt id='1188'> +7.9455221e+01 </wgt>
<wgt id='1189'> +7.9037177e+01 </wgt>
<wgt id='1190'> +7.1590579e+01 </wgt>
<wgt id='1191'> +8.0310385e+01 </wgt>
<wgt id='1192'> +7.7899208e+01 </wgt>
<wgt id='1193'> +7.6263296e+01 </wgt>
<wgt id='1194'> +7.0044022e+01 </wgt>
<wgt id='1195'> +7.8590645e+01 </wgt>
<wgt id='1196'> +7.9270611e+01 </wgt>
<wgt id='1197'> +7.7972397e+01 </wgt>
<wgt id='1198'> +7.9456960e+01 </wgt>
<wgt id='1199'> +7.8100086e+01 </wgt>
<wgt id='1200'> +7.8894101e+01 </wgt>
<wgt id='1201'> +8.2424811e+01 </wgt>
<wgt id='1202'> +7.0603293e+01 </wgt>
<wgt id='1203'> +8.1723228e+01 </wgt>
<wgt id='1204'> +8.1570144e+01 </wgt>
<wgt id='1205'> +8.1177846e+01 </wgt>
<wgt id='1206'> +8.1016686e+01 </wgt>
<wgt id='1207'> +7.8273861e+01 </wgt>
<wgt id='1208'> +7.6255186e+01 </wgt>
<wgt id='1209'> +9.0080141e+01 </wgt>
<wgt id='1210'> +7.9102841e+01 </wgt>
<wgt id='1211'> +7.3294479e+01 </wgt>
<wgt id='1212'> +7.2198837e+01 </wgt>
<wgt id='1213'> +7.9424707e+01 </wgt>
<wgt id='1214'> +7.9909993e+01 </wgt>
<wgt id='1215'> +7.6238853e+01 </wgt>
<wgt id='1216'> +7.5742430e+01 </wgt>
<wgt id='1217'> +7.5786975e+01 </wgt>
<wgt id='1218'> +7.5653188e+01 </wgt>
<wgt id='1219'> +7.5545068e+01 </wgt>
<wgt id='1220'> +7.2848961e+01 </wgt>
<wgt id='1221'> +7.5031795e+01 </wgt>
<wgt id='1222'> +7.6253559e+01 </wgt>
<wgt id='1223'> +7.5204982e+01 </wgt>
<wgt id='1224'> +7.6634252e+01 </wgt>
<wgt id='1225'> +7.5249745e+01 </wgt>
<wgt id='1226'> +7.7998208e+01 </wgt>
<wgt id='1227'> +7.5988709e+01 </wgt>
<wgt id='1228'> +7.4848037e+01 </wgt>
<wgt id='1229'> +7.6040161e+01 </wgt>
<wgt id='1230'> +7.4840038e+01 </wgt>
<wgt id='1231'> +7.6458562e+01 </wgt>
<wgt id='1232'> +7.5030898e+01 </wgt>
<wgt id='1233'> +7.5780933e+01 </wgt>
<wgt id='1234'> +7.5747741e+01 </wgt>
<wgt id='1235'> +7.5661400e+01 </wgt>
<wgt id='1236'> +7.5634476e+01 </wgt>
<wgt id='1237'> +7.5802224e+01 </wgt>
<wgt id='1238'> +7.5742396e+01 </wgt>
<wgt id='1239'> +7.5607045e+01 </wgt>
<wgt id='1240'> +7.5870139e+01 </wgt>
<wgt id='1241'> +7.5565907e+01 </wgt>
<wgt id='1242'> +7.5763242e+01 </wgt>
<wgt id='1243'> +7.5682786e+01 </wgt>
<wgt id='1244'> +7.5555293e+01 </wgt>
<wgt id='1245'> +7.5587174e+01 </wgt>
<wgt id='1246'> +7.6148370e+01 </wgt>
<wgt id='1247'> +7.6011090e+01 </wgt>
<wgt id='1248'> +7.5745325e+01 </wgt>
<wgt id='1249'> +7.6118189e+01 </wgt>
<wgt id='1250'> +7.5696608e+01 </wgt>
<wgt id='1251'> +7.6039781e+01 </wgt>
<wgt id='1252'> +7.5802759e+01 </wgt>
<wgt id='1253'> +7.5661159e+01 </wgt>
<wgt id='1254'> +7.5761566e+01 </wgt>
<wgt id='1255'> +7.5722345e+01 </wgt>
<wgt id='1256'> +7.5644173e+01 </wgt>
<wgt id='1257'> +7.5870058e+01 </wgt>
<wgt id='1258'> +7.5742396e+01 </wgt>
<wgt id='1259'> +7.5699265e+01 </wgt>
<wgt id='1260'> +7.5788784e+01 </wgt>
<wgt id='1261'> +7.5903384e+01 </wgt>
<wgt id='1262'> +7.5774402e+01 </wgt>
<wgt id='1263'> +7.5686711e+01 </wgt>
<wgt id='1264'> +7.5734169e+01 </wgt>
<wgt id='1265'> +7.5652285e+01 </wgt>
<wgt id='1266'> +7.5661648e+01 </wgt>
<wgt id='1267'> +7.5748493e+01 </wgt>
<wgt id='1268'> +7.5613675e+01 </wgt>
<wgt id='1269'> +7.5688050e+01 </wgt>
<wgt id='1270'> +7.5771895e+01 </wgt>
<wgt id='1271'> +7.5639528e+01 </wgt>
<wgt id='1272'> +7.5749647e+01 </wgt>
<wgt id='1273'> +7.5737799e+01 </wgt>
<wgt id='1274'> +7.5674863e+01 </wgt>
<wgt id='1275'> +7.5762504e+01 </wgt>
<wgt id='1276'> +7.5752083e+01 </wgt>
<wgt id='1277'> +7.5764746e+01 </wgt>
<wgt id='1278'> +7.5794259e+01 </wgt>
<wgt id='1279'> +7.5797636e+01 </wgt>
<wgt id='1280'> +7.5665958e+01 </wgt>
<wgt id='1281'> +7.5646463e+01 </wgt>
<wgt id='1282'> +7.5717246e+01 </wgt>
<wgt id='1283'> +7.5757627e+01 </wgt>
<wgt id='1284'> +7.5791056e+01 </wgt>
<wgt id='1285'> +7.5684270e+01 </wgt>
<wgt id='1286'> +7.5721710e+01 </wgt>
<wgt id='1287'> +7.5739787e+01 </wgt>
<wgt id='1288'> +7.5744013e+01 </wgt>
<wgt id='1289'> +7.5697497e+01 </wgt>
<wgt id='1290'> +7.5765528e+01 </wgt>
<wgt id='1291'> +7.5728945e+01 </wgt>
<wgt id='1292'> +7.5735193e+01 </wgt>
<wgt id='1293'> +7.5749265e+01 </wgt>
<wgt id='1294'> +7.5737244e+01 </wgt>
<wgt id='1295'> +7.5756264e+01 </wgt>
<wgt id='1296'> +7.5746275e+01 </wgt>
<wgt id='1297'> +7.5729876e+01 </wgt>
<wgt id='1298'> +7.5749605e+01 </wgt>
<wgt id='1299'> +7.5742364e+01 </wgt>
<wgt id='1300'> +7.5717396e+01 </wgt>
<wgt id='1301'> +7.5709033e+01 </wgt>
<wgt id='1302'> +7.5736038e+01 </wgt>
<wgt id='1303'> +7.5719987e+01 </wgt>
<wgt id='1304'> +7.5752383e+01 </wgt>
<wgt id='1305'> +7.5742877e+01 </wgt>
<wgt id='1306'> +7.5740648e+01 </wgt>
<wgt id='1307'> +7.5758345e+01 </wgt>
<wgt id='1308'> +7.5739550e+01 </wgt>
<wgt id='1309'> +7.5758379e+01 </wgt>
<wgt id='1310'> +7.5754415e+01 </wgt>
<wgt id='1311'> +7.5738824e+01 </wgt>
<wgt id='1312'> +7.5763704e+01 </wgt>
<wgt id='1313'> +7.5738015e+01 </wgt>
<wgt id='1314'> +7.5752505e+01 </wgt>
<wgt id='1315'> +7.5753325e+01 </wgt>
<wgt id='1316'> +7.5739731e+01 </wgt>
<wgt id='1317'> +7.2640002e+01 </wgt>
<wgt id='1318'> +7.7889424e+01 </wgt>
<wgt id='1319'> +2.6211105e+01 </wgt>
<wgt id='1320'> +7.1978231e+01 </wgt>
<wgt id='1321'> +7.2064439e+01 </wgt>
<wgt id='1322'> +7.2132628e+01 </wgt>
<wgt id='1323'> +7.0440164e+01 </wgt>
<wgt id='1324'> +7.3015798e+01 </wgt>
<wgt id='1325'> +7.2265135e+01 </wgt>
<wgt id='1326'> +7.1857722e+01 </wgt>
<wgt id='1327'> +7.2827520e+01 </wgt>
<wgt id='1328'> +7.1589908e+01 </wgt>
<wgt id='1329'> +7.1081068e+01 </wgt>
<wgt id='1330'> +7.2757520e+01 </wgt>
<wgt id='1331'> +7.1952606e+01 </wgt>
<wgt id='1332'> +7.2051037e+01 </wgt>
<wgt id='1333'> +7.0984785e+01 </wgt>
<wgt id='1334'> +7.2331303e+01 </wgt>
<wgt id='1335'> +6.8289140e+01 </wgt>
<wgt id='1336'> +7.6113061e+01 </wgt>
<wgt id='1337'> +7.0649289e+01 </wgt>
<wgt id='1338'> +7.3541466e+01 </wgt>
<wgt id='1339'> +7.2260654e+01 </wgt>
<wgt id='1340'> +7.1621134e+01 </wgt>
<wgt id='1341'> +7.1865152e+01 </wgt>
<wgt id='1342'> +7.2131059e+01 </wgt>
<wgt id='1343'> +7.2099742e+01 </wgt>
<wgt id='1344'> +7.1784886e+01 </wgt>
<wgt id='1345'> +7.1755946e+01 </wgt>
<wgt id='1346'> +7.2185880e+01 </wgt>
<wgt id='1347'> +7.2102338e+01 </wgt>
<wgt id='1348'> +7.1764084e+01 </wgt>
<wgt id='1349'> +7.1981516e+01 </wgt>
<wgt id='1350'> +7.1974620e+01 </wgt>
<wgt id='1351'> +7.2071772e+01 </wgt>
<wgt id='1352'> +7.1848048e+01 </wgt>
<wgt id='1353'> +7.2103997e+01 </wgt>
<wgt id='1354'> +7.1686140e+01 </wgt>
<wgt id='1355'> +7.2466098e+01 </wgt>
<wgt id='1356'> +7.1517252e+01 </wgt>
<wgt id='1357'> +7.1739482e+01 </wgt>
<wgt id='1358'> +7.1972465e+01 </wgt>
<wgt id='1359'> +7.1335524e+01 </wgt>
<wgt id='1360'> +7.1767816e+01 </wgt>
<wgt id='1361'> +7.1973610e+01 </wgt>
<wgt id='1362'> +7.2046201e+01 </wgt>
<wgt id='1363'> +7.1683780e+01 </wgt>
<wgt id='1364'> +7.2308208e+01 </wgt>
<wgt id='1365'> +7.2057208e+01 </wgt>
<wgt id='1366'> +7.1655312e+01 </wgt>
<wgt id='1367'> +7.1936579e+01 </wgt>
<wgt id='1368'> +7.1267275e+01 </wgt>
<wgt id='1369'> +7.0961217e+01 </wgt>
<wgt id='1370'> +7.2749935e+01 </wgt>
<wgt id='1371'> +7.1601342e+01 </wgt>
<wgt id='1372'> +7.1784626e+01 </wgt>
<wgt id='1373'> +6.9289075e+01 </wgt>
<wgt id='1374'> +7.0624749e+01 </wgt>
<wgt id='1375'> +8.1425496e+01 </wgt>
<wgt id='1376'> +6.6737321e+01 </wgt>
<wgt id='1377'> +6.9354275e+01 </wgt>
<wgt id='1378'> +7.4630769e+01 </wgt>
<wgt id='1379'> +7.3456310e+01 </wgt>
<wgt id='1380'> +7.0544689e+01 </wgt>
<wgt id='1381'> +7.6391922e+01 </wgt>
<wgt id='1382'> +6.1429575e+01 </wgt>
<wgt id='1383'> +7.2859672e+01 </wgt>
<wgt id='1384'> +7.7116018e+01 </wgt>
<wgt id='1385'> +7.9863404e+01 </wgt>
<wgt id='1386'> +7.9659601e+01 </wgt>
<wgt id='1387'> +8.0092642e+01 </wgt>
<wgt id='1388'> +7.9707731e+01 </wgt>
<wgt id='1389'> +8.0135957e+01 </wgt>
<wgt id='1390'> +7.9943832e+01 </wgt>
<wgt id='1391'> +7.9766213e+01 </wgt>
<wgt id='1392'> +8.0110870e+01 </wgt>
<wgt id='1393'> +7.9685812e+01 </wgt>
<wgt id='1394'> +7.9626877e+01 </wgt>
<wgt id='1395'> +8.0156485e+01 </wgt>
<wgt id='1396'> +7.9404912e+01 </wgt>
<wgt id='1397'> +8.0104035e+01 </wgt>
<wgt id='1398'> +8.0071260e+01 </wgt>
<wgt id='1399'> +7.9704370e+01 </wgt>
<wgt id='1400'> +7.9667813e+01 </wgt>
<wgt id='1401'> +8.0007837e+01 </wgt>
<wgt id='1402'> +7.9564328e+01 </wgt>
<wgt id='1403'> +8.0000946e+01 </wgt>
<wgt id='1404'> +8.0933182e+01 </wgt>
<wgt id='1405'> +7.9336833e+01 </wgt>
<wgt id='1406'> +8.0898778e+01 </wgt>
<wgt id='1407'> +7.8030251e+01 </wgt>
<wgt id='1408'> +8.1088743e+01 </wgt>
<wgt id='1409'> +7.7395474e+01 </wgt>
<wgt id='1410'> +8.0066145e+01 </wgt>
<wgt id='1411'> +7.9319488e+01 </wgt>
<wgt id='1412'> +7.8912769e+01 </wgt>
<wgt id='1413'> +8.0825800e+01 </wgt>
<wgt id='1414'> +7.9936103e+01 </wgt>
<wgt id='1415'> +7.9827693e+01 </wgt>
<wgt id='1416'> +8.0114403e+01 </wgt>
<wgt id='1417'> +7.9716263e+01 </wgt>
<wgt id='1418'> +8.0102441e+01 </wgt>
<wgt id='1419'> +7.9283124e+01 </wgt>
<wgt id='1420'> +7.9635423e+01 </wgt>
<wgt id='1421'> +7.9713895e+01 </wgt>
<wgt id='1422'> +7.9446599e+01 </wgt>
<wgt id='1423'> +8.0275884e+01 </wgt>
<wgt id='1424'> +7.9996325e+01 </wgt>
<wgt id='1425'> +7.9277798e+01 </wgt>
<wgt id='1426'> +7.9031527e+01 </wgt>
<wgt id='1427'> +7.9323634e+01 </wgt>
<wgt id='1428'> +7.9757806e+01 </wgt>
<wgt id='1429'> +7.9678319e+01 </wgt>
<wgt id='1430'> +7.9029747e+01 </wgt>
<wgt id='1431'> +7.9064041e+01 </wgt>
<wgt id='1432'> +7.9064798e+01 </wgt>
<wgt id='1433'> +7.8755186e+01 </wgt>
<wgt id='1434'> +7.9685302e+01 </wgt>
<wgt id='1435'> +7.9724814e+01 </wgt>
<wgt id='1436'> +7.5165635e+01 </wgt>
<wgt id='1437'> +7.5151395e+01 </wgt>
<wgt id='1438'> +7.5192550e+01 </wgt>
<wgt id='1439'> +7.5165288e+01 </wgt>
<wgt id='1440'> +7.5195351e+01 </wgt>
<wgt id='1441'> +7.4747259e+01 </wgt>
<wgt id='1442'> +7.4605468e+01 </wgt>
<wgt id='1443'> +7.5115609e+01 </wgt>
<wgt id='1444'> +7.4754446e+01 </wgt>
<wgt id='1445'> +7.4845147e+01 </wgt>
<wgt id='1446'> +7.5559498e+01 </wgt>
<wgt id='1447'> +7.5103011e+01 </wgt>
<wgt id='1448'> +7.6184483e+01 </wgt>
<wgt id='1449'> +7.4942421e+01 </wgt>
<wgt id='1450'> +7.6005876e+01 </wgt>
<wgt id='1451'> +7.5444287e+01 </wgt>
<wgt id='1452'> +7.4811058e+01 </wgt>
<wgt id='1453'> +7.5117264e+01 </wgt>
<wgt id='1454'> +7.5375132e+01 </wgt>
<wgt id='1455'> +7.4792591e+01 </wgt>
<wgt id='1456'> +7.5284056e+01 </wgt>
<wgt id='1457'> +7.3980776e+01 </wgt>
<wgt id='1458'> +7.7046952e+01 </wgt>
<wgt id='1459'> +7.5370021e+01 </wgt>
<wgt id='1460'> +7.5324778e+01 </wgt>
<wgt id='1461'> +7.5892279e+01 </wgt>
<wgt id='1462'> +7.5252085e+01 </wgt>
<wgt id='1463'> +7.4755153e+01 </wgt>
<wgt id='1464'> +7.5071513e+01 </wgt>
<wgt id='1465'> +8.4885313e+01 </wgt>
<wgt id='1466'> +7.3533006e+01 </wgt>
<wgt id='1467'> +7.3327990e+01 </wgt>
<wgt id='1468'> +7.3913952e+01 </wgt>
<wgt id='1469'> +6.8037035e+01 </wgt>
<wgt id='1470'> +7.4844156e+01 </wgt>
<wgt id='1471'> +7.4269740e+01 </wgt>
<wgt id='1472'> +7.4910133e+01 </wgt>
<wgt id='1473'> +7.3508218e+01 </wgt>
<wgt id='1474'> +7.3992806e+01 </wgt>
<wgt id='1475'> +7.4275331e+01 </wgt>
<wgt id='1476'> +7.3217556e+01 </wgt>
<wgt id='1477'> +7.5366621e+01 </wgt>
<wgt id='1478'> +7.3087316e+01 </wgt>
<wgt id='1479'> +7.3308945e+01 </wgt>
<wgt id='1480'> +7.2603385e+01 </wgt>
<wgt id='1481'> +7.3850081e+01 </wgt>
<wgt id='1482'> +7.3421413e+01 </wgt>
<wgt id='1483'> +7.2869122e+01 </wgt>
<wgt id='1484'> +7.3374816e+01 </wgt>
<wgt id='1485'> +7.2800870e+01 </wgt>
<wgt id='1486'> +7.3234849e+01 </wgt>
<wgt id='1487'> +7.3435230e+01 </wgt>
<wgt id='1488'> +7.3848112e+01 </wgt>
<wgt id='1489'> +7.3401260e+01 </wgt>
<wgt id='1490'> +7.3665332e+01 </wgt>
<wgt id='1491'> +7.3591915e+01 </wgt>
<wgt id='1492'> +7.3497658e+01 </wgt>
<wgt id='1493'> +7.3436417e+01 </wgt>
<wgt id='1494'> +7.3375705e+01 </wgt>
<wgt id='1495'> +7.3528366e+01 </wgt>
<wgt id='1496'> +7.3637952e+01 </wgt>
<wgt id='1497'> +7.3534455e+01 </wgt>
<wgt id='1498'> +7.3460417e+01 </wgt>
<wgt id='1499'> +7.3437183e+01 </wgt>
<wgt id='1500'> +7.3575511e+01 </wgt>
<wgt id='1501'> +7.3646646e+01 </wgt>
<wgt id='1502'> +7.3555910e+01 </wgt>
<wgt id='1503'> +7.3562645e+01 </wgt>
<wgt id='1504'> +7.3537453e+01 </wgt>
<wgt id='1505'> +7.3536318e+01 </wgt>
<wgt id='1506'> +7.3519227e+01 </wgt>
<wgt id='1507'> +7.3634555e+01 </wgt>
<wgt id='1508'> +7.3560341e+01 </wgt>
<wgt id='1509'> +7.3489907e+01 </wgt>
<wgt id='1510'> +7.3625552e+01 </wgt>
<wgt id='1511'> +7.3592101e+01 </wgt>
<wgt id='1512'> +7.3570279e+01 </wgt>
<wgt id='1513'> +7.3475934e+01 </wgt>
<wgt id='1514'> +7.3490514e+01 </wgt>
<wgt id='1515'> +7.3565111e+01 </wgt>
<wgt id='1516'> +7.3490004e+01 </wgt>
<wgt id='1517'> +7.3503864e+01 </wgt>
<wgt id='1518'> +7.3457066e+01 </wgt>
<wgt id='1519'> +7.3491223e+01 </wgt>
<wgt id='1520'> +7.3508530e+01 </wgt>
<wgt id='1521'> +7.3509623e+01 </wgt>
<wgt id='1522'> +7.3495434e+01 </wgt>
<wgt id='1523'> +7.3504743e+01 </wgt>
<wgt id='1524'> +7.3602857e+01 </wgt>
<wgt id='1525'> +7.3541913e+01 </wgt>
<wgt id='1526'> +7.3474463e+01 </wgt>
<wgt id='1527'> +7.3579208e+01 </wgt>
<wgt id='1528'> +7.3514727e+01 </wgt>
<wgt id='1529'> +7.3535312e+01 </wgt>
<wgt id='1530'> +7.3510966e+01 </wgt>
<wgt id='1531'> +7.3530410e+01 </wgt>
<wgt id='1532'> +7.3552895e+01 </wgt>
<wgt id='1533'> +7.3558716e+01 </wgt>
<wgt id='1534'> +7.3541490e+01 </wgt>
<wgt id='1535'> +7.3566601e+01 </wgt>
<wgt id='1536'> +7.3511387e+01 </wgt>
<wgt id='1537'> +7.3484053e+01 </wgt>
<wgt id='1538'> +7.3487895e+01 </wgt>
<wgt id='1539'> +7.3530565e+01 </wgt>
<wgt id='1540'> +7.3492694e+01 </wgt>
<wgt id='1541'> +7.3512196e+01 </wgt>
<wgt id='1542'> +7.3539782e+01 </wgt>
<wgt id='1543'> +7.3509346e+01 </wgt>
<wgt id='1544'> +7.3533410e+01 </wgt>
<wgt id='1545'> +7.3573250e+01 </wgt>
<wgt id='1546'> +7.3532403e+01 </wgt>
<wgt id='1547'> +7.3571079e+01 </wgt>
<wgt id='1548'> +7.3511991e+01 </wgt>
<wgt id='1549'> +7.3548055e+01 </wgt>
<wgt id='1550'> +7.3557116e+01 </wgt>
<wgt id='1551'> +7.3546314e+01 </wgt>
<wgt id='1552'> +7.3583438e+01 </wgt>
<wgt id='1553'> +7.3555837e+01 </wgt>
<wgt id='1554'> +7.3536583e+01 </wgt>
<wgt id='1555'> +7.3529352e+01 </wgt>
<wgt id='1556'> +7.3530527e+01 </wgt>
<wgt id='1557'> +7.3507326e+01 </wgt>
<wgt id='1558'> +7.3536373e+01 </wgt>
<wgt id='1559'> +7.3533035e+01 </wgt>
<wgt id='1560'> +7.3517198e+01 </wgt>
<wgt id='1561'> +7.3525459e+01 </wgt>
<wgt id='1562'> +7.3545935e+01 </wgt>
<wgt id='1563'> +7.3557797e+01 </wgt>
<wgt id='1564'> +7.3534966e+01 </wgt>
<wgt id='1565'> +7.3527898e+01 </wgt>
<wgt id='1566'> +7.3529939e+01 </wgt>
<wgt id='1567'> +7.1813017e+01 </wgt>
<wgt id='1568'> +7.5149377e+01 </wgt>
<wgt id='1569'> +7.5865182e+01 </wgt>
<wgt id='1570'> +7.6189996e+01 </wgt>
<wgt id='1571'> +7.6397701e+01 </wgt>
<wgt id='1572'> +7.4904403e+01 </wgt>
<wgt id='1573'> +7.3166372e+01 </wgt>
<wgt id='1574'> +7.2171148e+01 </wgt>
<wgt id='1575'> +7.4253280e+01 </wgt>
<wgt id='1576'> +7.6017656e+01 </wgt>
<wgt id='1577'> +7.6084758e+01 </wgt>
<wgt id='1578'> +7.5087076e+01 </wgt>
<wgt id='1579'> +7.6701394e+01 </wgt>
<wgt id='1580'> +7.3168987e+01 </wgt>
<wgt id='1581'> +7.5173173e+01 </wgt>
<wgt id='1582'> +7.4726775e+01 </wgt>
<wgt id='1583'> +7.6125762e+01 </wgt>
<wgt id='1584'> +7.5968679e+01 </wgt>
<wgt id='1585'> +7.6459112e+01 </wgt>
<wgt id='1586'> +7.5560400e+01 </wgt>
<wgt id='1587'> +7.5601227e+01 </wgt>
<wgt id='1588'> +7.5857955e+01 </wgt>
<wgt id='1589'> +7.6597659e+01 </wgt>
<wgt id='1590'> +7.5900845e+01 </wgt>
<wgt id='1591'> +7.5780333e+01 </wgt>
<wgt id='1592'> +7.5322574e+01 </wgt>
<wgt id='1593'> +7.5710231e+01 </wgt>
<wgt id='1594'> +7.6114528e+01 </wgt>
<wgt id='1595'> +7.5838983e+01 </wgt>
<wgt id='1596'> +7.5824636e+01 </wgt>
<wgt id='1597'> +7.5933775e+01 </wgt>
<wgt id='1598'> +7.6034293e+01 </wgt>
<wgt id='1599'> +7.5925669e+01 </wgt>
<wgt id='1600'> +7.5845558e+01 </wgt>
<wgt id='1601'> +7.5776579e+01 </wgt>
<wgt id='1602'> +7.5955604e+01 </wgt>
<wgt id='1603'> +7.5827653e+01 </wgt>
<wgt id='1604'> +7.5907830e+01 </wgt>
<wgt id='1605'> +7.5936983e+01 </wgt>
<wgt id='1606'> +7.5985200e+01 </wgt>
<wgt id='1607'> +7.5893605e+01 </wgt>
<wgt id='1608'> +7.5896543e+01 </wgt>
<wgt id='1609'> +7.5799524e+01 </wgt>
<wgt id='1610'> +7.5877898e+01 </wgt>
<wgt id='1611'> +7.5852524e+01 </wgt>
<wgt id='1612'> +7.5734026e+01 </wgt>
<wgt id='1613'> +7.5896336e+01 </wgt>
<wgt id='1614'> +7.5896094e+01 </wgt>
<wgt id='1615'> +7.5821757e+01 </wgt>
<wgt id='1616'> +7.5863764e+01 </wgt>
<wgt id='1617'> +7.5919476e+01 </wgt>
<wgt id='1618'> +7.5853960e+01 </wgt>
<wgt id='1619'> +7.5893033e+01 </wgt>
<wgt id='1620'> +7.5888379e+01 </wgt>
<wgt id='1621'> +7.5883443e+01 </wgt>
<wgt id='1622'> +7.5897428e+01 </wgt>
<wgt id='1623'> +7.5843232e+01 </wgt>
<wgt id='1624'> +7.5776202e+01 </wgt>
<wgt id='1625'> +7.5944656e+01 </wgt>
<wgt id='1626'> +7.5885044e+01 </wgt>
<wgt id='1627'> +7.5816485e+01 </wgt>
<wgt id='1628'> +7.5830975e+01 </wgt>
<wgt id='1629'> +7.5860601e+01 </wgt>
<wgt id='1630'> +7.5871652e+01 </wgt>
<wgt id='1631'> +7.5877691e+01 </wgt>
<wgt id='1632'> +7.5866473e+01 </wgt>
<wgt id='1633'> +7.5869962e+01 </wgt>
<wgt id='1634'> +7.5854289e+01 </wgt>
<wgt id='1635'> +7.5872905e+01 </wgt>
<wgt id='1636'> +7.5874232e+01 </wgt>
<wgt id='1637'> +7.5889947e+01 </wgt>
<wgt id='1638'> +7.5929311e+01 </wgt>
<wgt id='1639'> +7.5869349e+01 </wgt>
<wgt id='1640'> +7.5891349e+01 </wgt>
<wgt id='1641'> +7.5918526e+01 </wgt>
<wgt id='1642'> +7.5831098e+01 </wgt>
<wgt id='1643'> +7.5871796e+01 </wgt>
<wgt id='1644'> +7.5865412e+01 </wgt>
<wgt id='1645'> +7.5867048e+01 </wgt>
<wgt id='1646'> +7.5860663e+01 </wgt>
<wgt id='1647'> +7.5867292e+01 </wgt>
<wgt id='1648'> +7.5866224e+01 </wgt>
<wgt id='1649'> +7.5932758e+01 </wgt>
<wgt id='1650'> +7.5852935e+01 </wgt>
<wgt id='1651'> +7.5878899e+01 </wgt>
<wgt id='1652'> +7.5858845e+01 </wgt>
<wgt id='1653'> +7.5844500e+01 </wgt>
<wgt id='1654'> +7.5856812e+01 </wgt>
<wgt id='1655'> +7.5874646e+01 </wgt>
<wgt id='1656'> +7.5822227e+01 </wgt>
<wgt id='1657'> +7.5850634e+01 </wgt>
<wgt id='1658'> +7.5841884e+01 </wgt>
<wgt id='1659'> +7.5879649e+01 </wgt>
<wgt id='1660'> +7.5850908e+01 </wgt>
<wgt id='1661'> +7.5852466e+01 </wgt>
<wgt id='1662'> +7.5835777e+01 </wgt>
<wgt id='1663'> +7.5855895e+01 </wgt>
<wgt id='1664'> +7.5882851e+01 </wgt>
<wgt id='1665'> +7.5848667e+01 </wgt>
<wgt id='1666'> +7.5864827e+01 </wgt>
<wgt id='1667'> +7.5868171e+01 </wgt>
<wgt id='1668'> +7.5844073e+01 </wgt>
<wgt id='1669'> +7.5851966e+01 </wgt>
<wgt id='1670'> +7.3757765e+01 </wgt>
<wgt id='1671'> +7.7569276e+01 </wgt>
<wgt id='1672'> +7.3595955e+01 </wgt>
<wgt id='1673'> +7.3039258e+01 </wgt>
<wgt id='1674'> +7.4699216e+01 </wgt>
<wgt id='1675'> +7.3516664e+01 </wgt>
<wgt id='1676'> +7.1927610e+01 </wgt>
<wgt id='1677'> +7.2726241e+01 </wgt>
<wgt id='1678'> +7.3913226e+01 </wgt>
<wgt id='1679'> +7.3418053e+01 </wgt>
<wgt id='1680'> +7.3899643e+01 </wgt>
<wgt id='1681'> +7.1914202e+01 </wgt>
<wgt id='1682'> +7.3820140e+01 </wgt>
<wgt id='1683'> +7.8483684e+01 </wgt>
<wgt id='1684'> +7.3523765e+01 </wgt>
<wgt id='1685'> +7.3661947e+01 </wgt>
<wgt id='1686'> +7.4380367e+01 </wgt>
<wgt id='1687'> +7.3718825e+01 </wgt>
<wgt id='1688'> +7.3362911e+01 </wgt>
<wgt id='1689'> +7.3457650e+01 </wgt>
<wgt id='1690'> +7.3695672e+01 </wgt>
<wgt id='1691'> +7.3687577e+01 </wgt>
<wgt id='1692'> +7.3247453e+01 </wgt>
<wgt id='1693'> +7.3737587e+01 </wgt>
<wgt id='1694'> +7.3356177e+01 </wgt>
<wgt id='1695'> +7.3453261e+01 </wgt>
<wgt id='1696'> +7.3540011e+01 </wgt>
<wgt id='1697'> +7.3652775e+01 </wgt>
<wgt id='1698'> +7.3331111e+01 </wgt>
<wgt id='1699'> +7.4013605e+01 </wgt>
<wgt id='1700'> +7.4656895e+01 </wgt>
<wgt id='1701'> +7.5066756e+01 </wgt>
<wgt id='1702'> +7.3472622e+01 </wgt>
<wgt id='1703'> +7.1813017e+01 </wgt>
<wgt id='1704'> +7.5149377e+01 </wgt>
<wgt id='1705'> +7.5869427e+01 </wgt>
<wgt id='1706'> +7.6563869e+01 </wgt>
<wgt id='1707'> +7.3808093e+01 </wgt>
<wgt id='1708'> +7.5735304e+01 </wgt>
<wgt id='1709'> +7.9922922e+01 </wgt>
<wgt id='1710'> +7.5433859e+01 </wgt>
<wgt id='1711'> +7.6181413e+01 </wgt>
<wgt id='1712'> +7.5876846e+01 </wgt>
<wgt id='1713'> +7.6238453e+01 </wgt>
<wgt id='1714'> +7.6523244e+01 </wgt>
<wgt id='1715'> +7.7489738e+01 </wgt>
<wgt id='1716'> +7.4914447e+01 </wgt>
<wgt id='1717'> +7.5524297e+01 </wgt>
<wgt id='1718'> +7.5781957e+01 </wgt>
<wgt id='1719'> +7.5994742e+01 </wgt>
<wgt id='1720'> +7.6156445e+01 </wgt>
<wgt id='1721'> +7.5933263e+01 </wgt>
<wgt id='1722'> +7.6041377e+01 </wgt>
<wgt id='1723'> +7.5845294e+01 </wgt>
<wgt id='1724'> +7.6538372e+01 </wgt>
<wgt id='1725'> +7.4780208e+01 </wgt>
<wgt id='1726'> +7.5416765e+01 </wgt>
<wgt id='1727'> +7.5391792e+01 </wgt>
<wgt id='1728'> +7.5887583e+01 </wgt>
<wgt id='1729'> +7.5447204e+01 </wgt>
<wgt id='1730'> +7.7435448e+01 </wgt>
<wgt id='1731'> +7.5839944e+01 </wgt>
<wgt id='1732'> +7.5375566e+01 </wgt>
<wgt id='1733'> +7.5603097e+01 </wgt>
<wgt id='1734'> +7.6161782e+01 </wgt>
<wgt id='1735'> +7.5233122e+01 </wgt>
<wgt id='1736'> +7.3757765e+01 </wgt>
<wgt id='1737'> +7.7569276e+01 </wgt>
<wgt id='1738'> +7.3930379e+01 </wgt>
<wgt id='1739'> +7.3919438e+01 </wgt>
<wgt id='1740'> +7.3941512e+01 </wgt>
<wgt id='1741'> +7.4092387e+01 </wgt>
<wgt id='1742'> +7.3768564e+01 </wgt>
<wgt id='1743'> +7.4004651e+01 </wgt>
<wgt id='1744'> +7.3856105e+01 </wgt>
<wgt id='1745'> +7.4029034e+01 </wgt>
<wgt id='1746'> +7.3830644e+01 </wgt>
<wgt id='1747'> +7.4013460e+01 </wgt>
<wgt id='1748'> +7.3849159e+01 </wgt>
<wgt id='1749'> +7.3607954e+01 </wgt>
<wgt id='1750'> +7.4228104e+01 </wgt>
<wgt id='1751'> +7.3756258e+01 </wgt>
<wgt id='1752'> +7.4102752e+01 </wgt>
<wgt id='1753'> +7.4101700e+01 </wgt>
<wgt id='1754'> +7.3857984e+01 </wgt>
<wgt id='1755'> +7.4098970e+01 </wgt>
<wgt id='1756'> +7.3695334e+01 </wgt>
<wgt id='1757'> +7.3992266e+01 </wgt>
<wgt id='1758'> +7.3890179e+01 </wgt>
<wgt id='1759'> +7.4062724e+01 </wgt>
<wgt id='1760'> +7.3717517e+01 </wgt>
<wgt id='1761'> +7.3281962e+01 </wgt>
<wgt id='1762'> +7.4258532e+01 </wgt>
<wgt id='1763'> +7.3729971e+01 </wgt>
<wgt id='1764'> +7.4230767e+01 </wgt>
<wgt id='1765'> +7.4554903e+01 </wgt>
<wgt id='1766'> +7.3386857e+01 </wgt>
<wgt id='1767'> +7.3930379e+01 </wgt>
<wgt id='1768'> +7.0368419e+01 </wgt>
<wgt id='1769'> +7.8320329e+01 </wgt>
<wgt id='1770'> +6.9734512e+01 </wgt>
<wgt id='1771'> +7.6835804e+01 </wgt>
<wgt id='1772'> +7.4155426e+01 </wgt>
<wgt id='1773'> +7.4240694e+01 </wgt>
<wgt id='1774'> +7.3813588e+01 </wgt>
<wgt id='1775'> +7.4079513e+01 </wgt>
<wgt id='1776'> +7.3796204e+01 </wgt>
<wgt id='1777'> +7.4096686e+01 </wgt>
<wgt id='1778'> +7.3935917e+01 </wgt>
<wgt id='1779'> +7.4021345e+01 </wgt>
<wgt id='1780'> +7.3517952e+01 </wgt>
<wgt id='1781'> +7.8436634e+01 </wgt>
<wgt id='1782'> +7.8464240e+01 </wgt>
<wgt id='1783'> +7.8402126e+01 </wgt>
<wgt id='1784'> +7.8534185e+01 </wgt>
<wgt id='1785'> +7.8331917e+01 </wgt>
<wgt id='1786'> +7.8566996e+01 </wgt>
<wgt id='1787'> +7.8299526e+01 </wgt>
<wgt id='1788'> +7.8619759e+01 </wgt>
<wgt id='1789'> +7.8242133e+01 </wgt>
<wgt id='1790'> +7.8329122e+01 </wgt>
<wgt id='1791'> +7.8533670e+01 </wgt>
<wgt id='1792'> +7.8653948e+01 </wgt>
<wgt id='1793'> +7.8213414e+01 </wgt>
<wgt id='1794'> +7.8272180e+01 </wgt>
<wgt id='1795'> +7.8598493e+01 </wgt>
<wgt id='1796'> +7.8510099e+01 </wgt>
<wgt id='1797'> +7.8471949e+01 </wgt>
<wgt id='1798'> +7.8406472e+01 </wgt>
<wgt id='1799'> +7.8446950e+01 </wgt>
<wgt id='1800'> +7.8391695e+01 </wgt>
<wgt id='1801'> +7.8470520e+01 </wgt>
<wgt id='1802'> +7.8348120e+01 </wgt>
<wgt id='1803'> +7.8411956e+01 </wgt>
<wgt id='1804'> +7.8121285e+01 </wgt>
<wgt id='1805'> +7.8731872e+01 </wgt>
<wgt id='1806'> +7.7708201e+01 </wgt>
<wgt id='1807'> +7.8969073e+01 </wgt>
<wgt id='1808'> +7.8211255e+01 </wgt>
<wgt id='1809'> +7.8746747e+01 </wgt>
<wgt id='1810'> +7.8323314e+01 </wgt>
<wgt id='1811'> +7.4163380e+01 </wgt>
<wgt id='1812'> +8.3247970e+01 </wgt>
<wgt id='1813'> +7.3406003e+01 </wgt>
<wgt id='1814'> +8.1791131e+01 </wgt>
<wgt id='1815'> +7.7472130e+01 </wgt>
<wgt id='1816'> +7.8195114e+01 </wgt>
<wgt id='1817'> +7.8148451e+01 </wgt>
<wgt id='1818'> +7.8655865e+01 </wgt>
<wgt id='1819'> +7.8380656e+01 </wgt>
<wgt id='1820'> +7.7387504e+01 </wgt>
<wgt id='1821'> +7.8451787e+01 </wgt>
<wgt id='1822'> +7.8704921e+01 </wgt>
<wgt id='1823'> +7.8417104e+01 </wgt>
<wgt id='1824'> +7.1635420e+01 </wgt>
<wgt id='1825'> +7.1619854e+01 </wgt>
<wgt id='1826'> +7.1604731e+01 </wgt>
<wgt id='1827'> +7.1589568e+01 </wgt>
<wgt id='1828'> +7.1574446e+01 </wgt>
<wgt id='1829'> +7.1558855e+01 </wgt>
<wgt id='1830'> +7.1543404e+01 </wgt>
<wgt id='1831'> +7.1528193e+01 </wgt>
<wgt id='1832'> +7.1513073e+01 </wgt>
<wgt id='1833'> +7.1497932e+01 </wgt>
<wgt id='1834'> +7.1482361e+01 </wgt>
<wgt id='1835'> +7.1467247e+01 </wgt>
<wgt id='1836'> +7.1452168e+01 </wgt>
<wgt id='1837'> +7.1436664e+01 </wgt>
<wgt id='1838'> +7.1421456e+01 </wgt>
<wgt id='1839'> +7.1405966e+01 </wgt>
<wgt id='1840'> +7.1390768e+01 </wgt>
<wgt id='1841'> +7.1375643e+01 </wgt>
<wgt id='1842'> +7.1360560e+01 </wgt>
<wgt id='1843'> +7.1345006e+01 </wgt>
<wgt id='1844'> +7.1329560e+01 </wgt>
<wgt id='1845'> +7.1314327e+01 </wgt>
<wgt id='1846'> +7.1299284e+01 </wgt>
<wgt id='1847'> +7.1284083e+01 </wgt>
<wgt id='1848'> +7.1268543e+01 </wgt>
<wgt id='1849'> +7.1253470e+01 </wgt>
<wgt id='1850'> +7.1238399e+01 </wgt>
<wgt id='1851'> +7.1222884e+01 </wgt>
<wgt id='1852'> +7.1207693e+01 </wgt>
<wgt id='1853'> +7.1192242e+01 </wgt>
<wgt id='1854'> +7.1177032e+01 </wgt>
<wgt id='1855'> +7.5069289e+01 </wgt>
<wgt id='1856'> +7.5379756e+01 </wgt>
<wgt id='1857'> +7.5588726e+01 </wgt>
<wgt id='1858'> +7.4124172e+01 </wgt>
<wgt id='1859'> +7.2391961e+01 </wgt>
<wgt id='1860'> +7.1406097e+01 </wgt>
<wgt id='1861'> +7.3484263e+01 </wgt>
<wgt id='1862'> +7.5228841e+01 </wgt>
<wgt id='1863'> +7.5287228e+01 </wgt>
<wgt id='1864'> +7.4300837e+01 </wgt>
<wgt id='1865'> +7.5901867e+01 </wgt>
<wgt id='1866'> +7.2404220e+01 </wgt>
<wgt id='1867'> +7.4390223e+01 </wgt>
<wgt id='1868'> +7.3954898e+01 </wgt>
<wgt id='1869'> +7.5323121e+01 </wgt>
<wgt id='1870'> +7.5145014e+01 </wgt>
<wgt id='1871'> +7.5669510e+01 </wgt>
<wgt id='1872'> +7.4761967e+01 </wgt>
<wgt id='1873'> +7.4806478e+01 </wgt>
<wgt id='1874'> +7.5072599e+01 </wgt>
<wgt id='1875'> +7.5809793e+01 </wgt>
<wgt id='1876'> +7.5095505e+01 </wgt>
<wgt id='1877'> +7.4985423e+01 </wgt>
<wgt id='1878'> +7.4532280e+01 </wgt>
<wgt id='1879'> +7.4906989e+01 </wgt>
<wgt id='1880'> +7.5308577e+01 </wgt>
<wgt id='1881'> +7.5032594e+01 </wgt>
<wgt id='1882'> +7.5040129e+01 </wgt>
<wgt id='1883'> +7.5144121e+01 </wgt>
<wgt id='1884'> +7.5231498e+01 </wgt>
<wgt id='1885'> +7.5123416e+01 </wgt>
<wgt id='1886'> +7.5063852e+01 </wgt>
<wgt id='1887'> +7.4978022e+01 </wgt>
<wgt id='1888'> +7.5156586e+01 </wgt>
<wgt id='1889'> +7.5030038e+01 </wgt>
<wgt id='1890'> +7.5109016e+01 </wgt>
<wgt id='1891'> +7.5140399e+01 </wgt>
<wgt id='1892'> +7.5189942e+01 </wgt>
<wgt id='1893'> +7.5097144e+01 </wgt>
<wgt id='1894'> +7.5096676e+01 </wgt>
<wgt id='1895'> +7.5003203e+01 </wgt>
<wgt id='1896'> +7.5077524e+01 </wgt>
<wgt id='1897'> +7.5054310e+01 </wgt>
<wgt id='1898'> +7.4947821e+01 </wgt>
<wgt id='1899'> +7.5099725e+01 </wgt>
<wgt id='1900'> +7.5098425e+01 </wgt>
<wgt id='1901'> +7.5029907e+01 </wgt>
<wgt id='1902'> +7.5064798e+01 </wgt>
<wgt id='1903'> +7.5125154e+01 </wgt>
<wgt id='1904'> +7.5055150e+01 </wgt>
<wgt id='1905'> +7.5098902e+01 </wgt>
<wgt id='1906'> +7.5092053e+01 </wgt>
<wgt id='1907'> +7.5087169e+01 </wgt>
<wgt id='1908'> +7.5102407e+01 </wgt>
<wgt id='1909'> +7.5048438e+01 </wgt>
<wgt id='1910'> +7.4982156e+01 </wgt>
<wgt id='1911'> +7.5144065e+01 </wgt>
<wgt id='1912'> +7.5088633e+01 </wgt>
<wgt id='1913'> +7.5026652e+01 </wgt>
<wgt id='1914'> +7.5038294e+01 </wgt>
<wgt id='1915'> +7.5066272e+01 </wgt>
<wgt id='1916'> +7.5076633e+01 </wgt>
<wgt id='1917'> +7.5080848e+01 </wgt>
<wgt id='1918'> +7.5069790e+01 </wgt>
<wgt id='1919'> +7.5075047e+01 </wgt>
<wgt id='1920'> +7.5058326e+01 </wgt>
<wgt id='1921'> +7.5076433e+01 </wgt>
<wgt id='1922'> +7.5076542e+01 </wgt>
<wgt id='1923'> +7.5093356e+01 </wgt>
<wgt id='1924'> +7.5130156e+01 </wgt>
<wgt id='1925'> +7.5072648e+01 </wgt>
<wgt id='1926'> +7.5097392e+01 </wgt>
<wgt id='1927'> +7.5121473e+01 </wgt>
<wgt id='1928'> +7.5033301e+01 </wgt>
<wgt id='1929'> +7.5075391e+01 </wgt>
<wgt id='1930'> +7.5069635e+01 </wgt>
<wgt id='1931'> +7.5074199e+01 </wgt>
<wgt id='1932'> +7.5065560e+01 </wgt>
<wgt id='1933'> +7.5073893e+01 </wgt>
<wgt id='1934'> +7.5070560e+01 </wgt>
<wgt id='1935'> +7.5133818e+01 </wgt>
<wgt id='1936'> +7.5060064e+01 </wgt>
<wgt id='1937'> +7.5084407e+01 </wgt>
<wgt id='1938'> +7.5062504e+01 </wgt>
<wgt id='1939'> +7.5047736e+01 </wgt>
<wgt id='1940'> +7.5062045e+01 </wgt>
<wgt id='1941'> +7.5081162e+01 </wgt>
<wgt id='1942'> +7.5024953e+01 </wgt>
<wgt id='1943'> +7.5054151e+01 </wgt>
<wgt id='1944'> +7.5045104e+01 </wgt>
<wgt id='1945'> +7.5083112e+01 </wgt>
<wgt id='1946'> +7.5053910e+01 </wgt>
<wgt id='1947'> +7.5056495e+01 </wgt>
<wgt id='1948'> +7.5041350e+01 </wgt>
<wgt id='1949'> +7.5058891e+01 </wgt>
<wgt id='1950'> +7.5086871e+01 </wgt>
<wgt id='1951'> +7.5053705e+01 </wgt>
<wgt id='1952'> +7.5069533e+01 </wgt>
<wgt id='1953'> +7.5072076e+01 </wgt>
<wgt id='1954'> +7.5049260e+01 </wgt>
<wgt id='1955'> +7.5056991e+01 </wgt>
<wgt id='1956'> +7.5068644e+01 </wgt>
<wgt id='1957'> +7.5072833e+01 </wgt>
<wgt id='1958'> +7.5069974e+01 </wgt>
<wgt id='1959'> +7.5070083e+01 </wgt>
<wgt id='1960'> +7.5071281e+01 </wgt>
<wgt id='1961'> +7.5069579e+01 </wgt>
<wgt id='1962'> +7.5073570e+01 </wgt>
</rwgt>
</event>
<event npLO=" -1 " npNLO=" 1 ">
 7      1 +1.5146096e+02 1.25401640e+01 7.54677110e-03 1.15521310e-01
        1 -1    0    0  502    0 +0.0000000000e+00 +0.0000000000e+00 +1.3814354000e+02 1.3814354000e+02 0.0000000000e+00 0.0000e+00 9.0000e+00
       21 -1    0    0  501  502 +0.0000000000e+00 +0.0000000000e+00 -1.3205831000e+02 1.3205831000e+02 0.0000000000e+00 0.0000e+00 9.0000e+00
       23  2    1    2    0    0 -1.8683285000e+00 +7.3088688000e+01 +9.7917067000e+01 1.5255811000e+02 9.1327867000e+01 0.0000e+00 0.0000e+00
       13  1    3    3    0    0 -3.3578514000e+01 +7.4305079000e+01 +5.1885419000e+01 9.6648114000e+01 0.0000000000e+00 0.0000e+00 9.0000e+00
      -13  1    3    3    0    0 +3.1710185000e+01 -1.2163912000e+00 +4.6031648000e+01 5.5910000000e+01 0.0000000000e+00 0.0000e+00 9.0000e+00
       22  1    1    2    0    0 -9.3042549000e-01 -6.0864830000e+01 -7.3515601000e+01 9.5445989000e+01 0.0000000000e+00 0.0000e+00 9.0000e+00
        1  1    1    2  501    0 +2.7987539000e+00 -1.2223858000e+01 -1.8316232000e+01 2.2197749000e+01 0.0000000000e+00 0.0000e+00 9.0000e+00
#aMCatNLO 1  0  0  6  2 0.41171298E+01 0.00000000E+00 -9  7  0 0.00000000E+00 0.00000000E+00 0.00000000E+00 0.00000000E+00 0.00000000E+00
<rwgt>
<wgt id='1001'> +1.5146000e+02 </wgt>
<wgt id='1002'> +1.5146000e+02 </wgt>
<wgt id='1003'> +1.4198000e+02 </wgt>
<wgt id='1004'> +1.5517000e+02 </wgt>
<wgt id='1005'> +1.5067000e+02 </wgt>
<wgt id='1006'> +1.5224000e+02 </wgt>
<wgt id='1007'> +1.3417000e+02 </wgt>
<wgt id='1008'> +1.4955000e+02 </wgt>
<wgt id='1009'> +1.5607000e+02 </wgt>
<wgt id='1010'> +1.4937000e+02 </wgt>
<wgt id='1011'> +1.5096000e+02 </wgt>
<wgt id='1012'> +1.5122000e+02 </wgt>
<wgt id='1013'> +1.5206000e+02 </wgt>
<wgt id='1014'> +1.5296000e+02 </wgt>
<wgt id='1015'> +1.5426000e+02 </wgt>
<wgt id='1016'> +1.4989000e+02 </wgt>
<wgt id='1017'> +1.5247000e+02 </wgt>
<wgt id='1018'> +1.4740000e+02 </wgt>
<wgt id='1019'> +1.4875000e+02 </wgt>
<wgt id='1020'> +1.4548000e+02 </wgt>
<wgt id='1021'> +1.5569000e+02 </wgt>
<wgt id='1022'> +1.4937000e+02 </wgt>
<wgt id='1023'> +1.5775000e+02 </wgt>
<wgt id='1024'> +1.5064000e+02 </wgt>
<wgt id='1025'> +1.5867000e+02 </wgt>
<wgt id='1026'> +1.4984000e+02 </wgt>
<wgt id='1027'> +1.5378000e+02 </wgt>
<wgt id='1028'> +1.4813000e+02 </wgt>
<wgt id='1029'> +1.4926000e+02 </wgt>
<wgt id='1030'> +1.5339000e+02 </wgt>
<wgt id='1031'> +1.4931000e+02 </wgt>
<wgt id='1032'> +1.5239000e+02 </wgt>
<wgt id='1033'> +1.5065000e+02 </wgt>
<wgt id='1034'> +1.4824000e+02 </wgt>
<wgt id='1035'> +1.5442000e+02 </wgt>
<wgt id='1036'> +1.4959000e+02 </wgt>
<wgt id='1037'> +1.5378000e+02 </wgt>
<wgt id='1038'> +1.5135000e+02 </wgt>
<wgt id='1039'> +1.5214000e+02 </wgt>
<wgt id='1040'> +1.4963000e+02 </wgt>
<wgt id='1041'> +1.4786000e+02 </wgt>
<wgt id='1042'> +1.5312000e+02 </wgt>
<wgt id='1043'> +1.5825000e+02 </wgt>
<wgt id='1044'> +1.5529000e+02 </wgt>
<wgt id='1045'> +1.5157000e+02 </wgt>
<wgt id='1046'> +1.4805000e+02 </wgt>
<wgt id='1047'> +1.5278000e+02 </wgt>
<wgt id='1048'> +1.5355000e+02 </wgt>
<wgt id='1049'> +1.4984000e+02 </wgt>
<wgt id='1050'> +1.5100000e+02 </wgt>
<wgt id='1051'> +1.5081000e+02 </wgt>
<wgt id='1052'> +1.5307000e+02 </wgt>
<wgt id='1053'> +1.5494000e+02 </wgt>
<wgt id='1054'> +1.4827000e+02 </wgt>
<wgt id='1055'> +1.5239000e+02 </wgt>
<wgt id='1056'> +1.5380000e+02 </wgt>
<wgt id='1057'> +1.5075000e+02 </wgt>
<wgt id='1058'> +1.4757000e+02 </wgt>
<wgt id='1059'> +1.5585000e+02 </wgt>
<wgt id='1060'> +1.5060000e+02 </wgt>
<wgt id='1061'> +1.5014000e+02 </wgt>
<wgt id='1062'> +1.5084000e+02 </wgt>
<wgt id='1063'> +1.5220000e+02 </wgt>
<wgt id='1064'> +1.5314000e+02 </wgt>
<wgt id='1065'> +1.5647000e+02 </wgt>
<wgt id='1066'> +1.4777000e+02 </wgt>
<wgt id='1067'> +1.5473000e+02 </wgt>
<wgt id='1068'> +1.4951000e+02 </wgt>
<wgt id='1069'> +1.5690000e+02 </wgt>
<wgt id='1070'> +1.5122000e+02 </wgt>
<wgt id='1071'> +1.5018000e+02 </wgt>
<wgt id='1072'> +1.4919000e+02 </wgt>
<wgt id='1073'> +1.5274000e+02 </wgt>
<wgt id='1074'> +1.4778000e+02 </wgt>
<wgt id='1075'> +1.4479000e+02 </wgt>
<wgt id='1076'> +1.5137000e+02 </wgt>
<wgt id='1077'> +1.5549000e+02 </wgt>
<wgt id='1078'> +1.4480000e+02 </wgt>
<wgt id='1079'> +1.5154000e+02 </wgt>
<wgt id='1080'> +1.5532000e+02 </wgt>
<wgt id='1081'> +1.5174000e+02 </wgt>
<wgt id='1082'> +1.5003000e+02 </wgt>
<wgt id='1083'> +1.5236000e+02 </wgt>
<wgt id='1084'> +1.5431000e+02 </wgt>
<wgt id='1085'> +1.4936000e+02 </wgt>
<wgt id='1086'> +1.5262000e+02 </wgt>
<wgt id='1087'> +1.5111000e+02 </wgt>
<wgt id='1088'> +1.5304000e+02 </wgt>
<wgt id='1089'> +1.5155000e+02 </wgt>
<wgt id='1090'> +1.5491000e+02 </wgt>
<wgt id='1091'> +1.5344000e+02 </wgt>
<wgt id='1092'> +1.5268000e+02 </wgt>
<wgt id='1093'> +1.5576000e+02 </wgt>
<wgt id='1094'> +1.5085000e+02 </wgt>
<wgt id='1095'> +1.4955000e+02 </wgt>
<wgt id='1096'> +1.5424000e+02 </wgt>
<wgt id='1097'> +1.4640000e+02 </wgt>
<wgt id='1098'> +1.5396000e+02 </wgt>
<wgt id='1099'> +1.5261000e+02 </wgt>
<wgt id='1100'> +1.5490000e+02 </wgt>
<wgt id='1101'> +1.5538000e+02 </wgt>
<wgt id='1102'> +1.4768000e+02 </wgt>
<wgt id='1103'> +1.4942000e+02 </wgt>
<wgt id='1104'> +1.5323000e+02 </wgt>
<wgt id='1105'> +1.5146096e+02 </wgt>
<wgt id='1106'> +6.2608517e+01 </wgt>
<wgt id='1107'> +9.3623224e+01 </wgt>
<wgt id='1108'> +7.7219001e+01 </wgt>
<wgt id='1109'> +6.3839178e+01 </wgt>
<wgt id='1110'> +9.5463350e+01 </wgt>
<wgt id='1111'> +7.3241571e+01 </wgt>
<wgt id='1112'> +6.0550775e+01 </wgt>
<wgt id='1113'> +9.0546402e+01 </wgt>
<wgt id='1114'> +7.8161533e+01 </wgt>
<wgt id='1115'> +8.1361057e+01 </wgt>
<wgt id='1116'> +7.8929785e+01 </wgt>
<wgt id='1117'> +7.6104917e+01 </wgt>
<wgt id='1118'> +7.6271820e+01 </wgt>
<wgt id='1119'> +7.7894906e+01 </wgt>
<wgt id='1120'> +8.1232010e+01 </wgt>
<wgt id='1121'> +7.8723193e+01 </wgt>
<wgt id='1122'> +7.6755007e+01 </wgt>
<wgt id='1123'> +7.8276117e+01 </wgt>
<wgt id='1124'> +7.7915748e+01 </wgt>
<wgt id='1125'> +7.7850383e+01 </wgt>
<wgt id='1126'> +7.6384693e+01 </wgt>
<wgt id='1127'> +7.7134101e+01 </wgt>
<wgt id='1128'> +7.6272040e+01 </wgt>
<wgt id='1129'> +8.1692412e+01 </wgt>
<wgt id='1130'> +7.9793470e+01 </wgt>
<wgt id='1131'> +8.0736876e+01 </wgt>
<wgt id='1132'> +7.7296798e+01 </wgt>
<wgt id='1133'> +7.7785681e+01 </wgt>
<wgt id='1134'> +7.6458165e+01 </wgt>
<wgt id='1135'> +7.5963420e+01 </wgt>
<wgt id='1136'> +7.8187781e+01 </wgt>
<wgt id='1137'> +8.0622183e+01 </wgt>
<wgt id='1138'> +7.7943862e+01 </wgt>
<wgt id='1139'> +7.6546333e+01 </wgt>
<wgt id='1140'> +7.8719273e+01 </wgt>
<wgt id='1141'> +7.9543286e+01 </wgt>
<wgt id='1142'> +7.6730661e+01 </wgt>
<wgt id='1143'> +8.0051990e+01 </wgt>
<wgt id='1144'> +8.0004066e+01 </wgt>
<wgt id='1145'> +7.8011018e+01 </wgt>
<wgt id='1146'> +7.7785787e+01 </wgt>
<wgt id='1147'> +7.8450447e+01 </wgt>
<wgt id='1148'> +7.5885364e+01 </wgt>
<wgt id='1149'> +8.0284752e+01 </wgt>
<wgt id='1150'> +7.7073833e+01 </wgt>
<wgt id='1151'> +7.9084103e+01 </wgt>
<wgt id='1152'> +7.7166663e+01 </wgt>
<wgt id='1153'> +7.7007531e+01 </wgt>
<wgt id='1154'> +7.6212675e+01 </wgt>
<wgt id='1155'> +7.6517583e+01 </wgt>
<wgt id='1156'> +7.7186831e+01 </wgt>
<wgt id='1157'> +7.8605645e+01 </wgt>
<wgt id='1158'> +7.7933258e+01 </wgt>
<wgt id='1159'> +8.0089775e+01 </wgt>
<wgt id='1160'> +7.9080394e+01 </wgt>
<wgt id='1161'> +7.4862444e+01 </wgt>
<wgt id='1162'> +7.4844169e+01 </wgt>
<wgt id='1163'> +8.0497513e+01 </wgt>
<wgt id='1164'> +7.9617975e+01 </wgt>
<wgt id='1165'> +7.9493597e+01 </wgt>
<wgt id='1166'> +7.7498443e+01 </wgt>
<wgt id='1167'> +7.7546641e+01 </wgt>
<wgt id='1168'> +8.0945025e+01 </wgt>
<wgt id='1169'> +7.5721993e+01 </wgt>
<wgt id='1170'> +7.9295958e+01 </wgt>
<wgt id='1171'> +8.1040693e+01 </wgt>
<wgt id='1172'> +7.7030054e+01 </wgt>
<wgt id='1173'> +8.0027059e+01 </wgt>
<wgt id='1174'> +7.9149088e+01 </wgt>
<wgt id='1175'> +7.8143112e+01 </wgt>
<wgt id='1176'> +7.9652653e+01 </wgt>
<wgt id='1177'> +7.6241597e+01 </wgt>
<wgt id='1178'> +7.5581335e+01 </wgt>
<wgt id='1179'> +7.8283705e+01 </wgt>
<wgt id='1180'> +7.8476371e+01 </wgt>
<wgt id='1181'> +7.8187463e+01 </wgt>
<wgt id='1182'> +8.0188956e+01 </wgt>
<wgt id='1183'> +7.7703531e+01 </wgt>
<wgt id='1184'> +7.7269994e+01 </wgt>
<wgt id='1185'> +7.9408063e+01 </wgt>
<wgt id='1186'> +8.3355883e+01 </wgt>
<wgt id='1187'> +7.6249382e+01 </wgt>
<wgt id='1188'> +7.7453303e+01 </wgt>
<wgt id='1189'> +7.7332606e+01 </wgt>
<wgt id='1190'> +7.9358041e+01 </wgt>
<wgt id='1191'> +7.5625450e+01 </wgt>
<wgt id='1192'> +7.8811390e+01 </wgt>
<wgt id='1193'> +7.7728704e+01 </wgt>
<wgt id='1194'> +7.5989650e+01 </wgt>
<wgt id='1195'> +7.6439767e+01 </wgt>
<wgt id='1196'> +7.9793470e+01 </wgt>
<wgt id='1197'> +7.6221446e+01 </wgt>
<wgt id='1198'> +7.7735691e+01 </wgt>
<wgt id='1199'> +7.8333926e+01 </wgt>
<wgt id='1200'> +7.8794973e+01 </wgt>
<wgt id='1201'> +8.0556808e+01 </wgt>
<wgt id='1202'> +7.8486352e+01 </wgt>
<wgt id='1203'> +7.5996869e+01 </wgt>
<wgt id='1204'> +7.7108125e+01 </wgt>
<wgt id='1205'> +7.9258342e+01 </wgt>
<wgt id='1206'> +7.8399342e+01 </wgt>
<wgt id='1207'> +7.8584974e+01 </wgt>
<wgt id='1208'> +8.1188727e+01 </wgt>
<wgt id='1209'> +7.7955716e+01 </wgt>
<wgt id='1210'> +7.7624370e+01 </wgt>
<wgt id='1211'> +7.6931776e+01 </wgt>
<wgt id='1212'> +7.7879447e+01 </wgt>
<wgt id='1213'> +7.6037263e+01 </wgt>
<wgt id='1214'> +7.8588102e+01 </wgt>
<wgt id='1215'> +7.6278309e+01 </wgt>
<wgt id='1216'> +7.8065965e+01 </wgt>
<wgt id='1217'> +7.8168836e+01 </wgt>
<wgt id='1218'> +7.8067145e+01 </wgt>
<wgt id='1219'> +7.8164714e+01 </wgt>
<wgt id='1220'> +7.8178789e+01 </wgt>
<wgt id='1221'> +7.8347251e+01 </wgt>
<wgt id='1222'> +7.7967281e+01 </wgt>
<wgt id='1223'> +7.8359826e+01 </wgt>
<wgt id='1224'> +7.8135162e+01 </wgt>
<wgt id='1225'> +7.8335535e+01 </wgt>
<wgt id='1226'> +7.7745126e+01 </wgt>
<wgt id='1227'> +7.7989762e+01 </wgt>
<wgt id='1228'> +7.8331522e+01 </wgt>
<wgt id='1229'> +7.8020753e+01 </wgt>
<wgt id='1230'> +7.8338785e+01 </wgt>
<wgt id='1231'> +7.7901143e+01 </wgt>
<wgt id='1232'> +7.8523098e+01 </wgt>
<wgt id='1233'> +7.8074789e+01 </wgt>
<wgt id='1234'> +7.8329281e+01 </wgt>
<wgt id='1235'> +7.7744468e+01 </wgt>
<wgt id='1236'> +7.7584008e+01 </wgt>
<wgt id='1237'> +7.8294753e+01 </wgt>
<wgt id='1238'> +7.8046512e+01 </wgt>
<wgt id='1239'> +7.7857782e+01 </wgt>
<wgt id='1240'> +7.8514676e+01 </wgt>
<wgt id='1241'> +7.7796580e+01 </wgt>
<wgt id='1242'> +7.8211820e+01 </wgt>
<wgt id='1243'> +7.7741134e+01 </wgt>
<wgt id='1244'> +7.7926467e+01 </wgt>
<wgt id='1245'> +7.8658349e+01 </wgt>
<wgt id='1246'> +7.8303464e+01 </wgt>
<wgt id='1247'> +7.7514129e+01 </wgt>
<wgt id='1248'> +7.8403970e+01 </wgt>
<wgt id='1249'> +7.7900602e+01 </wgt>
<wgt id='1250'> +7.7864069e+01 </wgt>
<wgt id='1251'> +7.8204584e+01 </wgt>
<wgt id='1252'> +7.8067188e+01 </wgt>
<wgt id='1253'> +7.7837140e+01 </wgt>
<wgt id='1254'> +7.7932229e+01 </wgt>
<wgt id='1255'> +7.8223021e+01 </wgt>
<wgt id='1256'> +7.8031817e+01 </wgt>
<wgt id='1257'> +7.8188870e+01 </wgt>
<wgt id='1258'> +7.7876930e+01 </wgt>
<wgt id='1259'> +7.7915680e+01 </wgt>
<wgt id='1260'> +7.8003846e+01 </wgt>
<wgt id='1261'> +7.7887123e+01 </wgt>
<wgt id='1262'> +7.8134938e+01 </wgt>
<wgt id='1263'> +7.8225752e+01 </wgt>
<wgt id='1264'> +7.8178643e+01 </wgt>
<wgt id='1265'> +7.8140034e+01 </wgt>
<wgt id='1266'> +7.8141045e+01 </wgt>
<wgt id='1267'> +7.7988593e+01 </wgt>
<wgt id='1268'> +7.7933288e+01 </wgt>
<wgt id='1269'> +7.8045129e+01 </wgt>
<wgt id='1270'> +7.8082100e+01 </wgt>
<wgt id='1271'> +7.8129943e+01 </wgt>
<wgt id='1272'> +7.8177716e+01 </wgt>
<wgt id='1273'> +7.8036554e+01 </wgt>
<wgt id='1274'> +7.8117968e+01 </wgt>
<wgt id='1275'> +7.8038417e+01 </wgt>
<wgt id='1276'> +7.7933315e+01 </wgt>
<wgt id='1277'> +7.8136467e+01 </wgt>
<wgt id='1278'> +7.8252928e+01 </wgt>
<wgt id='1279'> +7.8212590e+01 </wgt>
<wgt id='1280'> +7.8032533e+01 </wgt>
<wgt id='1281'> +7.8021830e+01 </wgt>
<wgt id='1282'> +7.8089477e+01 </wgt>
<wgt id='1283'> +7.7977750e+01 </wgt>
<wgt id='1284'> +7.8034012e+01 </wgt>
<wgt id='1285'> +7.7983786e+01 </wgt>
<wgt id='1286'> +7.8075829e+01 </wgt>
<wgt id='1287'> +7.8126217e+01 </wgt>
<wgt id='1288'> +7.8208016e+01 </wgt>
<wgt id='1289'> +7.8026400e+01 </wgt>
<wgt id='1290'> +7.8121075e+01 </wgt>
<wgt id='1291'> +7.8049598e+01 </wgt>
<wgt id='1292'> +7.8038273e+01 </wgt>
<wgt id='1293'> +7.8107643e+01 </wgt>
<wgt id='1294'> +7.8045269e+01 </wgt>
<wgt id='1295'> +7.8087627e+01 </wgt>
<wgt id='1296'> +7.8042088e+01 </wgt>
<wgt id='1297'> +7.8016365e+01 </wgt>
<wgt id='1298'> +7.8067864e+01 </wgt>
<wgt id='1299'> +7.8048231e+01 </wgt>
<wgt id='1300'> +7.8067904e+01 </wgt>
<wgt id='1301'> +7.8087063e+01 </wgt>
<wgt id='1302'> +7.8043349e+01 </wgt>
<wgt id='1303'> +7.8008051e+01 </wgt>
<wgt id='1304'> +7.8088338e+01 </wgt>
<wgt id='1305'> +7.8131513e+01 </wgt>
<wgt id='1306'> +7.8056719e+01 </wgt>
<wgt id='1307'> +7.8034152e+01 </wgt>
<wgt id='1308'> +7.8110296e+01 </wgt>
<wgt id='1309'> +7.8055922e+01 </wgt>
<wgt id='1310'> +7.8081128e+01 </wgt>
<wgt id='1311'> +7.8035466e+01 </wgt>
<wgt id='1312'> +7.8039787e+01 </wgt>
<wgt id='1313'> +7.8062086e+01 </wgt>
<wgt id='1314'> +7.8055360e+01 </wgt>
<wgt id='1315'> +7.8035604e+01 </wgt>
<wgt id='1316'> +7.8098775e+01 </wgt>
<wgt id='1317'> +7.5966289e+01 </wgt>
<wgt id='1318'> +8.0374022e+01 </wgt>
<wgt id='1319'> +8.0603189e+01 </wgt>
<wgt id='1320'> +7.6897445e+01 </wgt>
<wgt id='1321'> +7.7934385e+01 </wgt>
<wgt id='1322'> +7.7132286e+01 </wgt>
<wgt id='1323'> +7.7912101e+01 </wgt>
<wgt id='1324'> +7.5889447e+01 </wgt>
<wgt id='1325'> +7.7476825e+01 </wgt>
<wgt id='1326'> +7.6671628e+01 </wgt>
<wgt id='1327'> +7.7287663e+01 </wgt>
<wgt id='1328'> +7.7204805e+01 </wgt>
<wgt id='1329'> +7.6050866e+01 </wgt>
<wgt id='1330'> +7.7125748e+01 </wgt>
<wgt id='1331'> +7.7531474e+01 </wgt>
<wgt id='1332'> +7.6706056e+01 </wgt>
<wgt id='1333'> +7.5462394e+01 </wgt>
<wgt id='1334'> +7.7244457e+01 </wgt>
<wgt id='1335'> +7.8083099e+01 </wgt>
<wgt id='1336'> +7.5355369e+01 </wgt>
<wgt id='1337'> +7.7748165e+01 </wgt>
<wgt id='1338'> +7.5937401e+01 </wgt>
<wgt id='1339'> +7.7844126e+01 </wgt>
<wgt id='1340'> +7.5865377e+01 </wgt>
<wgt id='1341'> +7.7350493e+01 </wgt>
<wgt id='1342'> +7.5954078e+01 </wgt>
<wgt id='1343'> +7.7443501e+01 </wgt>
<wgt id='1344'> +7.6339932e+01 </wgt>
<wgt id='1345'> +7.6391495e+01 </wgt>
<wgt id='1346'> +7.7283234e+01 </wgt>
<wgt id='1347'> +7.6622356e+01 </wgt>
<wgt id='1348'> +7.7274496e+01 </wgt>
<wgt id='1349'> +7.6752241e+01 </wgt>
<wgt id='1350'> +7.6949723e+01 </wgt>
<wgt id='1351'> +7.7654594e+01 </wgt>
<wgt id='1352'> +7.5925609e+01 </wgt>
<wgt id='1353'> +7.6793542e+01 </wgt>
<wgt id='1354'> +7.7114776e+01 </wgt>
<wgt id='1355'> +7.7209227e+01 </wgt>
<wgt id='1356'> +7.6706628e+01 </wgt>
<wgt id='1357'> +7.7523923e+01 </wgt>
<wgt id='1358'> +7.5718883e+01 </wgt>
<wgt id='1359'> +7.6360207e+01 </wgt>
<wgt id='1360'> +7.6968811e+01 </wgt>
<wgt id='1361'> +7.7400460e+01 </wgt>
<wgt id='1362'> +7.6791002e+01 </wgt>
<wgt id='1363'> +7.7294949e+01 </wgt>
<wgt id='1364'> +7.6441859e+01 </wgt>
<wgt id='1365'> +7.6200502e+01 </wgt>
<wgt id='1366'> +7.6066233e+01 </wgt>
<wgt id='1367'> +7.5858133e+01 </wgt>
<wgt id='1368'> +7.6494452e+01 </wgt>
<wgt id='1369'> +7.6244622e+01 </wgt>
<wgt id='1370'> +7.5559025e+01 </wgt>
<wgt id='1371'> +7.6027509e+01 </wgt>
<wgt id='1372'> +7.6480392e+01 </wgt>
<wgt id='1373'> +7.5904033e+01 </wgt>
<wgt id='1374'> +7.7226772e+01 </wgt>
<wgt id='1375'> +7.6242377e+01 </wgt>
<wgt id='1376'> +7.8984200e+01 </wgt>
<wgt id='1377'> +7.4629122e+01 </wgt>
<wgt id='1378'> +7.9050816e+01 </wgt>
<wgt id='1379'> +7.6866231e+01 </wgt>
<wgt id='1380'> +7.4670780e+01 </wgt>
<wgt id='1381'> +7.8972082e+01 </wgt>
<wgt id='1382'> +6.8865702e+01 </wgt>
<wgt id='1383'> +7.6907885e+01 </wgt>
<wgt id='1384'> +7.7838797e+01 </wgt>
<wgt id='1385'> +8.8652026e+01 </wgt>
<wgt id='1386'> +8.8993335e+01 </wgt>
<wgt id='1387'> +8.8270659e+01 </wgt>
<wgt id='1388'> +8.8592868e+01 </wgt>
<wgt id='1389'> +8.8745212e+01 </wgt>
<wgt id='1390'> +8.8776498e+01 </wgt>
<wgt id='1391'> +8.8503630e+01 </wgt>
<wgt id='1392'> +8.8255638e+01 </wgt>
<wgt id='1393'> +8.8926825e+01 </wgt>
<wgt id='1394'> +8.8563126e+01 </wgt>
<wgt id='1395'> +8.8762135e+01 </wgt>
<wgt id='1396'> +8.8598477e+01 </wgt>
<wgt id='1397'> +8.8674091e+01 </wgt>
<wgt id='1398'> +8.7916556e+01 </wgt>
<wgt id='1399'> +8.9197823e+01 </wgt>
<wgt id='1400'> +8.8006289e+01 </wgt>
<wgt id='1401'> +8.9147253e+01 </wgt>
<wgt id='1402'> +8.8664788e+01 </wgt>
<wgt id='1403'> +8.8645844e+01 </wgt>
<wgt id='1404'> +8.7469977e+01 </wgt>
<wgt id='1405'> +8.9260578e+01 </wgt>
<wgt id='1406'> +8.8440886e+01 </wgt>
<wgt id='1407'> +8.9032248e+01 </wgt>
<wgt id='1408'> +8.8329847e+01 </wgt>
<wgt id='1409'> +8.9303322e+01 </wgt>
<wgt id='1410'> +8.8307295e+01 </wgt>
<wgt id='1411'> +8.9435307e+01 </wgt>
<wgt id='1412'> +8.9228433e+01 </wgt>
<wgt id='1413'> +8.7982474e+01 </wgt>
<wgt id='1414'> +8.8923692e+01 </wgt>
<wgt id='1415'> +8.8488892e+01 </wgt>
<wgt id='1416'> +8.8266347e+01 </wgt>
<wgt id='1417'> +8.8817316e+01 </wgt>
<wgt id='1418'> +8.8385274e+01 </wgt>
<wgt id='1419'> +8.9181592e+01 </wgt>
<wgt id='1420'> +8.8139362e+01 </wgt>
<wgt id='1421'> +8.9398472e+01 </wgt>
<wgt id='1422'> +8.9133754e+01 </wgt>
<wgt id='1423'> +8.8084852e+01 </wgt>
<wgt id='1424'> +8.9137214e+01 </wgt>
<wgt id='1425'> +8.7898268e+01 </wgt>
<wgt id='1426'> +8.9226463e+01 </wgt>
<wgt id='1427'> +8.8584441e+01 </wgt>
<wgt id='1428'> +8.8827797e+01 </wgt>
<wgt id='1429'> +8.8341413e+01 </wgt>
<wgt id='1430'> +8.8797685e+01 </wgt>
<wgt id='1431'> +8.9122257e+01 </wgt>
<wgt id='1432'> +8.8907938e+01 </wgt>
<wgt id='1433'> +8.9106644e+01 </wgt>
<wgt id='1434'> +8.8913338e+01 </wgt>
<wgt id='1435'> +8.8330202e+01 </wgt>
<wgt id='1436'> +6.5937203e+01 </wgt>
<wgt id='1437'> +6.5921460e+01 </wgt>
<wgt id='1438'> +6.5998162e+01 </wgt>
<wgt id='1439'> +6.5938885e+01 </wgt>
<wgt id='1440'> +6.5872771e+01 </wgt>
<wgt id='1441'> +6.6221873e+01 </wgt>
<wgt id='1442'> +6.5777806e+01 </wgt>
<wgt id='1443'> +6.5826851e+01 </wgt>
<wgt id='1444'> +6.5712267e+01 </wgt>
<wgt id='1445'> +6.5431603e+01 </wgt>
<wgt id='1446'> +6.6086672e+01 </wgt>
<wgt id='1447'> +6.5880832e+01 </wgt>
<wgt id='1448'> +6.5829048e+01 </wgt>
<wgt id='1449'> +6.5877546e+01 </wgt>
<wgt id='1450'> +6.5959700e+01 </wgt>
<wgt id='1451'> +6.6096823e+01 </wgt>
<wgt id='1452'> +6.5801185e+01 </wgt>
<wgt id='1453'> +6.6076398e+01 </wgt>
<wgt id='1454'> +6.6092870e+01 </wgt>
<wgt id='1455'> +6.5959968e+01 </wgt>
<wgt id='1456'> +6.6052535e+01 </wgt>
<wgt id='1457'> +6.6285807e+01 </wgt>
<wgt id='1458'> +6.6230628e+01 </wgt>
<wgt id='1459'> +6.5730779e+01 </wgt>
<wgt id='1460'> +6.5893220e+01 </wgt>
<wgt id='1461'> +6.6039564e+01 </wgt>
<wgt id='1462'> +6.5507720e+01 </wgt>
<wgt id='1463'> +6.6658818e+01 </wgt>
<wgt id='1464'> +6.5959060e+01 </wgt>
<wgt id='1465'> +7.4264166e+01 </wgt>
<wgt id='1466'> +7.6570232e+01 </wgt>
<wgt id='1467'> +7.6448403e+01 </wgt>
<wgt id='1468'> +7.6765389e+01 </wgt>
<wgt id='1469'> +7.7383392e+01 </wgt>
<wgt id='1470'> +7.6303939e+01 </wgt>
<wgt id='1471'> +7.6293731e+01 </wgt>
<wgt id='1472'> +7.6186767e+01 </wgt>
<wgt id='1473'> +7.6831274e+01 </wgt>
<wgt id='1474'> +7.7218236e+01 </wgt>
<wgt id='1475'> +7.6334876e+01 </wgt>
<wgt id='1476'> +7.6876402e+01 </wgt>
<wgt id='1477'> +7.6249884e+01 </wgt>
<wgt id='1478'> +7.5989973e+01 </wgt>
<wgt id='1479'> +7.6741292e+01 </wgt>
<wgt id='1480'> +7.6276211e+01 </wgt>
<wgt id='1481'> +7.6561388e+01 </wgt>
<wgt id='1482'> +7.6433685e+01 </wgt>
<wgt id='1483'> +7.6687954e+01 </wgt>
<wgt id='1484'> +7.7058235e+01 </wgt>
<wgt id='1485'> +7.6212534e+01 </wgt>
<wgt id='1486'> +7.6637047e+01 </wgt>
<wgt id='1487'> +7.6210112e+01 </wgt>
<wgt id='1488'> +7.6507797e+01 </wgt>
<wgt id='1489'> +7.6958550e+01 </wgt>
<wgt id='1490'> +7.6536683e+01 </wgt>
<wgt id='1491'> +7.6300858e+01 </wgt>
<wgt id='1492'> +7.6308356e+01 </wgt>
<wgt id='1493'> +7.6615032e+01 </wgt>
<wgt id='1494'> +7.6204888e+01 </wgt>
<wgt id='1495'> +7.6379615e+01 </wgt>
<wgt id='1496'> +7.6269693e+01 </wgt>
<wgt id='1497'> +7.6539910e+01 </wgt>
<wgt id='1498'> +7.6705731e+01 </wgt>
<wgt id='1499'> +7.6118550e+01 </wgt>
<wgt id='1500'> +7.6695563e+01 </wgt>
<wgt id='1501'> +7.6500913e+01 </wgt>
<wgt id='1502'> +7.6617756e+01 </wgt>
<wgt id='1503'> +7.6815797e+01 </wgt>
<wgt id='1504'> +7.6213220e+01 </wgt>
<wgt id='1505'> +7.6490275e+01 </wgt>
<wgt id='1506'> +7.6771965e+01 </wgt>
<wgt id='1507'> +7.6391044e+01 </wgt>
<wgt id='1508'> +7.6786547e+01 </wgt>
<wgt id='1509'> +7.6489765e+01 </wgt>
<wgt id='1510'> +7.6837670e+01 </wgt>
<wgt id='1511'> +7.6607376e+01 </wgt>
<wgt id='1512'> +7.6551578e+01 </wgt>
<wgt id='1513'> +7.6536501e+01 </wgt>
<wgt id='1514'> +7.6522207e+01 </wgt>
<wgt id='1515'> +7.6598996e+01 </wgt>
<wgt id='1516'> +7.6578173e+01 </wgt>
<wgt id='1517'> +7.6556508e+01 </wgt>
<wgt id='1518'> +7.6402730e+01 </wgt>
<wgt id='1519'> +7.6459022e+01 </wgt>
<wgt id='1520'> +7.6516935e+01 </wgt>
<wgt id='1521'> +7.6586585e+01 </wgt>
<wgt id='1522'> +7.6499275e+01 </wgt>
<wgt id='1523'> +7.6570213e+01 </wgt>
<wgt id='1524'> +7.6667113e+01 </wgt>
<wgt id='1525'> +7.6567492e+01 </wgt>
<wgt id='1526'> +7.6501660e+01 </wgt>
<wgt id='1527'> +7.6553581e+01 </wgt>
<wgt id='1528'> +7.6575688e+01 </wgt>
<wgt id='1529'> +7.6547535e+01 </wgt>
<wgt id='1530'> +7.6574097e+01 </wgt>
<wgt id='1531'> +7.6528003e+01 </wgt>
<wgt id='1532'> +7.6516452e+01 </wgt>
<wgt id='1533'> +7.6555827e+01 </wgt>
<wgt id='1534'> +7.6588865e+01 </wgt>
<wgt id='1535'> +7.6616420e+01 </wgt>
<wgt id='1536'> +7.6568278e+01 </wgt>
<wgt id='1537'> +7.6529187e+01 </wgt>
<wgt id='1538'> +7.6556185e+01 </wgt>
<wgt id='1539'> +7.6587012e+01 </wgt>
<wgt id='1540'> +7.6597137e+01 </wgt>
<wgt id='1541'> +7.6519238e+01 </wgt>
<wgt id='1542'> +7.6571684e+01 </wgt>
<wgt id='1543'> +7.6544475e+01 </wgt>
<wgt id='1544'> +7.6582441e+01 </wgt>
<wgt id='1545'> +7.6607191e+01 </wgt>
<wgt id='1546'> +7.6556004e+01 </wgt>
<wgt id='1547'> +7.6591928e+01 </wgt>
<wgt id='1548'> +7.6550109e+01 </wgt>
<wgt id='1549'> +7.6579276e+01 </wgt>
<wgt id='1550'> +7.6595485e+01 </wgt>
<wgt id='1551'> +7.6585043e+01 </wgt>
<wgt id='1552'> +7.6604522e+01 </wgt>
<wgt id='1553'> +7.6589378e+01 </wgt>
<wgt id='1554'> +7.6553711e+01 </wgt>
<wgt id='1555'> +7.6558140e+01 </wgt>
<wgt id='1556'> +7.6555928e+01 </wgt>
<wgt id='1557'> +7.6552352e+01 </wgt>
<wgt id='1558'> +7.6582730e+01 </wgt>
<wgt id='1559'> +7.6554533e+01 </wgt>
<wgt id='1560'> +7.6561790e+01 </wgt>
<wgt id='1561'> +7.6555733e+01 </wgt>
<wgt id='1562'> +7.6569690e+01 </wgt>
<wgt id='1563'> +7.6559515e+01 </wgt>
<wgt id='1564'> +7.6580315e+01 </wgt>
<wgt id='1565'> +7.6590421e+01 </wgt>
<wgt id='1566'> +7.6580649e+01 </wgt>
<wgt id='1567'> +7.4991185e+01 </wgt>
<wgt id='1568'> +7.7974053e+01 </wgt>
<wgt id='1569'> +7.7035481e+01 </wgt>
<wgt id='1570'> +7.7363003e+01 </wgt>
<wgt id='1571'> +7.7088119e+01 </wgt>
<wgt id='1572'> +7.6875209e+01 </wgt>
<wgt id='1573'> +7.7325416e+01 </wgt>
<wgt id='1574'> +7.7780976e+01 </wgt>
<wgt id='1575'> +7.6929685e+01 </wgt>
<wgt id='1576'> +7.6709459e+01 </wgt>
<wgt id='1577'> +7.6972836e+01 </wgt>
<wgt id='1578'> +7.6940656e+01 </wgt>
<wgt id='1579'> +7.7028807e+01 </wgt>
<wgt id='1580'> +7.7545783e+01 </wgt>
<wgt id='1581'> +7.6701597e+01 </wgt>
<wgt id='1582'> +7.6560752e+01 </wgt>
<wgt id='1583'> +7.6444539e+01 </wgt>
<wgt id='1584'> +7.7414459e+01 </wgt>
<wgt id='1585'> +7.7078719e+01 </wgt>
<wgt id='1586'> +7.7046160e+01 </wgt>
<wgt id='1587'> +7.7381250e+01 </wgt>
<wgt id='1588'> +7.6329832e+01 </wgt>
<wgt id='1589'> +7.7194691e+01 </wgt>
<wgt id='1590'> +7.7004227e+01 </wgt>
<wgt id='1591'> +7.6560715e+01 </wgt>
<wgt id='1592'> +7.6952199e+01 </wgt>
<wgt id='1593'> +7.7316841e+01 </wgt>
<wgt id='1594'> +7.7152200e+01 </wgt>
<wgt id='1595'> +7.6892698e+01 </wgt>
<wgt id='1596'> +7.6971763e+01 </wgt>
<wgt id='1597'> +7.7032868e+01 </wgt>
<wgt id='1598'> +7.6963021e+01 </wgt>
<wgt id='1599'> +7.7136307e+01 </wgt>
<wgt id='1600'> +7.7104247e+01 </wgt>
<wgt id='1601'> +7.7244031e+01 </wgt>
<wgt id='1602'> +7.7421791e+01 </wgt>
<wgt id='1603'> +7.6897105e+01 </wgt>
<wgt id='1604'> +7.7546872e+01 </wgt>
<wgt id='1605'> +7.6447417e+01 </wgt>
<wgt id='1606'> +7.7252515e+01 </wgt>
<wgt id='1607'> +7.6877735e+01 </wgt>
<wgt id='1608'> +7.6791472e+01 </wgt>
<wgt id='1609'> +7.6835389e+01 </wgt>
<wgt id='1610'> +7.6999490e+01 </wgt>
<wgt id='1611'> +7.6962144e+01 </wgt>
<wgt id='1612'> +7.6969344e+01 </wgt>
<wgt id='1613'> +7.7228262e+01 </wgt>
<wgt id='1614'> +7.7091691e+01 </wgt>
<wgt id='1615'> +7.7008115e+01 </wgt>
<wgt id='1616'> +7.7093180e+01 </wgt>
<wgt id='1617'> +7.7108376e+01 </wgt>
<wgt id='1618'> +7.7020071e+01 </wgt>
<wgt id='1619'> +7.7029942e+01 </wgt>
<wgt id='1620'> +7.7041758e+01 </wgt>
<wgt id='1621'> +7.7106651e+01 </wgt>
<wgt id='1622'> +7.6994753e+01 </wgt>
<wgt id='1623'> +7.6969437e+01 </wgt>
<wgt id='1624'> +7.7006780e+01 </wgt>
<wgt id='1625'> +7.7194850e+01 </wgt>
<wgt id='1626'> +7.7081534e+01 </wgt>
<wgt id='1627'> +7.6987752e+01 </wgt>
<wgt id='1628'> +7.6956314e+01 </wgt>
<wgt id='1629'> +7.7046327e+01 </wgt>
<wgt id='1630'> +7.7029293e+01 </wgt>
<wgt id='1631'> +7.7081388e+01 </wgt>
<wgt id='1632'> +7.7027529e+01 </wgt>
<wgt id='1633'> +7.7022934e+01 </wgt>
<wgt id='1634'> +7.7048755e+01 </wgt>
<wgt id='1635'> +7.7069073e+01 </wgt>
<wgt id='1636'> +7.7085542e+01 </wgt>
<wgt id='1637'> +7.7031088e+01 </wgt>
<wgt id='1638'> +7.7107390e+01 </wgt>
<wgt id='1639'> +7.7082662e+01 </wgt>
<wgt id='1640'> +7.7031655e+01 </wgt>
<wgt id='1641'> +7.7077803e+01 </wgt>
<wgt id='1642'> +7.7054558e+01 </wgt>
<wgt id='1643'> +7.7062171e+01 </wgt>
<wgt id='1644'> +7.7011028e+01 </wgt>
<wgt id='1645'> +7.7026870e+01 </wgt>
<wgt id='1646'> +7.7023973e+01 </wgt>
<wgt id='1647'> +7.7051141e+01 </wgt>
<wgt id='1648'> +7.7016961e+01 </wgt>
<wgt id='1649'> +7.7094479e+01 </wgt>
<wgt id='1650'> +7.7046509e+01 </wgt>
<wgt id='1651'> +7.7062626e+01 </wgt>
<wgt id='1652'> +7.7029428e+01 </wgt>
<wgt id='1653'> +7.7015202e+01 </wgt>
<wgt id='1654'> +7.7009274e+01 </wgt>
<wgt id='1655'> +7.7054110e+01 </wgt>
<wgt id='1656'> +7.6985647e+01 </wgt>
<wgt id='1657'> +7.7022341e+01 </wgt>
<wgt id='1658'> +7.7043266e+01 </wgt>
<wgt id='1659'> +7.7017656e+01 </wgt>
<wgt id='1660'> +7.7039520e+01 </wgt>
<wgt id='1661'> +7.7043195e+01 </wgt>
<wgt id='1662'> +7.7016220e+01 </wgt>
<wgt id='1663'> +7.7022823e+01 </wgt>
<wgt id='1664'> +7.7026631e+01 </wgt>
<wgt id='1665'> +7.7009766e+01 </wgt>
<wgt id='1666'> +7.7039139e+01 </wgt>
<wgt id='1667'> +7.7041716e+01 </wgt>
<wgt id='1668'> +7.7017684e+01 </wgt>
<wgt id='1669'> +7.7039581e+01 </wgt>
<wgt id='1670'> +7.5513013e+01 </wgt>
<wgt id='1671'> +7.8437484e+01 </wgt>
<wgt id='1672'> +7.6567021e+01 </wgt>
<wgt id='1673'> +7.6760742e+01 </wgt>
<wgt id='1674'> +7.5835308e+01 </wgt>
<wgt id='1675'> +7.6601794e+01 </wgt>
<wgt id='1676'> +7.7532876e+01 </wgt>
<wgt id='1677'> +7.7724633e+01 </wgt>
<wgt id='1678'> +7.6779851e+01 </wgt>
<wgt id='1679'> +7.6620590e+01 </wgt>
<wgt id='1680'> +7.6620886e+01 </wgt>
<wgt id='1681'> +7.6631715e+01 </wgt>
<wgt id='1682'> +7.6653726e+01 </wgt>
<wgt id='1683'> +7.6266851e+01 </wgt>
<wgt id='1684'> +7.6462939e+01 </wgt>
<wgt id='1685'> +7.6587308e+01 </wgt>
<wgt id='1686'> +7.6336446e+01 </wgt>
<wgt id='1687'> +7.6602642e+01 </wgt>
<wgt id='1688'> +7.6682803e+01 </wgt>
<wgt id='1689'> +7.6507313e+01 </wgt>
<wgt id='1690'> +7.6562315e+01 </wgt>
<wgt id='1691'> +7.6498256e+01 </wgt>
<wgt id='1692'> +7.6871541e+01 </wgt>
<wgt id='1693'> +7.6651473e+01 </wgt>
<wgt id='1694'> +7.6577760e+01 </wgt>
<wgt id='1695'> +7.6662233e+01 </wgt>
<wgt id='1696'> +7.6644023e+01 </wgt>
<wgt id='1697'> +7.6636937e+01 </wgt>
<wgt id='1698'> +7.6426022e+01 </wgt>
<wgt id='1699'> +7.6772332e+01 </wgt>
<wgt id='1700'> +7.6733188e+01 </wgt>
<wgt id='1701'> +7.6516373e+01 </wgt>
<wgt id='1702'> +7.6525372e+01 </wgt>
<wgt id='1703'> +7.4991185e+01 </wgt>
<wgt id='1704'> +7.7974053e+01 </wgt>
<wgt id='1705'> +7.7031572e+01 </wgt>
<wgt id='1706'> +7.7129384e+01 </wgt>
<wgt id='1707'> +7.7739653e+01 </wgt>
<wgt id='1708'> +7.6962791e+01 </wgt>
<wgt id='1709'> +7.6562181e+01 </wgt>
<wgt id='1710'> +7.6480361e+01 </wgt>
<wgt id='1711'> +7.7059454e+01 </wgt>
<wgt id='1712'> +7.6926621e+01 </wgt>
<wgt id='1713'> +7.7164587e+01 </wgt>
<wgt id='1714'> +7.6429112e+01 </wgt>
<wgt id='1715'> +7.6715469e+01 </wgt>
<wgt id='1716'> +7.7227863e+01 </wgt>
<wgt id='1717'> +7.6969617e+01 </wgt>
<wgt id='1718'> +7.7086145e+01 </wgt>
<wgt id='1719'> +7.6911589e+01 </wgt>
<wgt id='1720'> +7.7009874e+01 </wgt>
<wgt id='1721'> +7.7121512e+01 </wgt>
<wgt id='1722'> +7.7281551e+01 </wgt>
<wgt id='1723'> +7.7122272e+01 </wgt>
<wgt id='1724'> +7.7147386e+01 </wgt>
<wgt id='1725'> +7.6472504e+01 </wgt>
<wgt id='1726'> +7.6801833e+01 </wgt>
<wgt id='1727'> +7.8045787e+01 </wgt>
<wgt id='1728'> +7.7032207e+01 </wgt>
<wgt id='1729'> +7.6866633e+01 </wgt>
<wgt id='1730'> +7.6889693e+01 </wgt>
<wgt id='1731'> +7.7136565e+01 </wgt>
<wgt id='1732'> +7.6933588e+01 </wgt>
<wgt id='1733'> +7.6717898e+01 </wgt>
<wgt id='1734'> +7.6935746e+01 </wgt>
<wgt id='1735'> +7.6893083e+01 </wgt>
<wgt id='1736'> +7.5513013e+01 </wgt>
<wgt id='1737'> +7.8437484e+01 </wgt>
<wgt id='1738'> +7.5272826e+01 </wgt>
<wgt id='1739'> +7.5289564e+01 </wgt>
<wgt id='1740'> +7.5256095e+01 </wgt>
<wgt id='1741'> +7.5262359e+01 </wgt>
<wgt id='1742'> +7.5283091e+01 </wgt>
<wgt id='1743'> +7.5412268e+01 </wgt>
<wgt id='1744'> +7.5133713e+01 </wgt>
<wgt id='1745'> +7.5330650e+01 </wgt>
<wgt id='1746'> +7.5214380e+01 </wgt>
<wgt id='1747'> +7.5608241e+01 </wgt>
<wgt id='1748'> +7.4923842e+01 </wgt>
<wgt id='1749'> +7.5153331e+01 </wgt>
<wgt id='1750'> +7.5418147e+01 </wgt>
<wgt id='1751'> +7.5107324e+01 </wgt>
<wgt id='1752'> +7.5440138e+01 </wgt>
<wgt id='1753'> +7.5290675e+01 </wgt>
<wgt id='1754'> +7.5131095e+01 </wgt>
<wgt id='1755'> +7.5503226e+01 </wgt>
<wgt id='1756'> +7.5087055e+01 </wgt>
<wgt id='1757'> +7.4886144e+01 </wgt>
<wgt id='1758'> +7.5576894e+01 </wgt>
<wgt id='1759'> +7.5005588e+01 </wgt>
<wgt id='1760'> +7.5478665e+01 </wgt>
<wgt id='1761'> +7.5483212e+01 </wgt>
<wgt id='1762'> +7.4761603e+01 </wgt>
<wgt id='1763'> +7.5411306e+01 </wgt>
<wgt id='1764'> +7.5183821e+01 </wgt>
<wgt id='1765'> +7.5621251e+01 </wgt>
<wgt id='1766'> +7.4965131e+01 </wgt>
<wgt id='1767'> +7.5272826e+01 </wgt>
<wgt id='1768'> +7.7076506e+01 </wgt>
<wgt id='1769'> +7.3211235e+01 </wgt>
<wgt id='1770'> +7.9077044e+01 </wgt>
<wgt id='1771'> +7.6923681e+01 </wgt>
<wgt id='1772'> +7.5447989e+01 </wgt>
<wgt id='1773'> +7.5146234e+01 </wgt>
<wgt id='1774'> +7.5164592e+01 </wgt>
<wgt id='1775'> +7.5359585e+01 </wgt>
<wgt id='1776'> +7.5041351e+01 </wgt>
<wgt id='1777'> +7.5467473e+01 </wgt>
<wgt id='1778'> +7.4995606e+01 </wgt>
<wgt id='1779'> +7.5637147e+01 </wgt>
<wgt id='1780'> +7.2903343e+01 </wgt>
<wgt id='1781'> +7.3100361e+01 </wgt>
<wgt id='1782'> +7.3124684e+01 </wgt>
<wgt id='1783'> +7.3059124e+01 </wgt>
<wgt id='1784'> +7.3015154e+01 </wgt>
<wgt id='1785'> +7.3168731e+01 </wgt>
<wgt id='1786'> +7.3192591e+01 </wgt>
<wgt id='1787'> +7.2991250e+01 </wgt>
<wgt id='1788'> +7.3119365e+01 </wgt>
<wgt id='1789'> +7.3063289e+01 </wgt>
<wgt id='1790'> +7.3198922e+01 </wgt>
<wgt id='1791'> +7.2987637e+01 </wgt>
<wgt id='1792'> +7.3507023e+01 </wgt>
<wgt id='1793'> +7.2671397e+01 </wgt>
<wgt id='1794'> +7.2889411e+01 </wgt>
<wgt id='1795'> +7.3290066e+01 </wgt>
<wgt id='1796'> +7.2971470e+01 </wgt>
<wgt id='1797'> +7.3086134e+01 </wgt>
<wgt id='1798'> +7.3101175e+01 </wgt>
<wgt id='1799'> +7.3071919e+01 </wgt>
<wgt id='1800'> +7.2929106e+01 </wgt>
<wgt id='1801'> +7.3224623e+01 </wgt>
<wgt id='1802'> +7.3008031e+01 </wgt>
<wgt id='1803'> +7.3120408e+01 </wgt>
<wgt id='1804'> +7.3519090e+01 </wgt>
<wgt id='1805'> +7.2680664e+01 </wgt>
<wgt id='1806'> +7.3743467e+01 </wgt>
<wgt id='1807'> +7.2367211e+01 </wgt>
<wgt id='1808'> +7.3830868e+01 </wgt>
<wgt id='1809'> +7.2417756e+01 </wgt>
<wgt id='1810'> +7.3106794e+01 </wgt>
<wgt id='1811'> +7.5097959e+01 </wgt>
<wgt id='1812'> +7.0741552e+01 </wgt>
<wgt id='1813'> +7.6961585e+01 </wgt>
<wgt id='1814'> +7.4371069e+01 </wgt>
<wgt id='1815'> +7.4178044e+01 </wgt>
<wgt id='1816'> +7.2829042e+01 </wgt>
<wgt id='1817'> +7.2971689e+01 </wgt>
<wgt id='1818'> +7.3047397e+01 </wgt>
<wgt id='1819'> +7.3274314e+01 </wgt>
<wgt id='1820'> +7.4384410e+01 </wgt>
<wgt id='1821'> +7.3583189e+01 </wgt>
<wgt id='1822'> +7.2755765e+01 </wgt>
<wgt id='1823'> +7.2546841e+01 </wgt>
<wgt id='1824'> +7.6495781e+01 </wgt>
<wgt id='1825'> +7.6473760e+01 </wgt>
<wgt id='1826'> +7.6451695e+01 </wgt>
<wgt id='1827'> +7.6429641e+01 </wgt>
<wgt id='1828'> +7.6407484e+01 </wgt>
<wgt id='1829'> +7.6385596e+01 </wgt>
<wgt id='1830'> +7.6363483e+01 </wgt>
<wgt id='1831'> +7.6341364e+01 </wgt>
<wgt id='1832'> +7.6319391e+01 </wgt>
<wgt id='1833'> +7.6297095e+01 </wgt>
<wgt id='1834'> +7.6275201e+01 </wgt>
<wgt id='1835'> +7.6253263e+01 </wgt>
<wgt id='1836'> +7.6231069e+01 </wgt>
<wgt id='1837'> +7.6209134e+01 </wgt>
<wgt id='1838'> +7.6187075e+01 </wgt>
<wgt id='1839'> +7.6165048e+01 </wgt>
<wgt id='1840'> +7.6142874e+01 </wgt>
<wgt id='1841'> +7.6121045e+01 </wgt>
<wgt id='1842'> +7.6099002e+01 </wgt>
<wgt id='1843'> +7.6076742e+01 </wgt>
<wgt id='1844'> +7.6054870e+01 </wgt>
<wgt id='1845'> +7.6032736e+01 </wgt>
<wgt id='1846'> +7.6010741e+01 </wgt>
<wgt id='1847'> +7.5988905e+01 </wgt>
<wgt id='1848'> +7.5966697e+01 </wgt>
<wgt id='1849'> +7.5944787e+01 </wgt>
<wgt id='1850'> +7.5922849e+01 </wgt>
<wgt id='1851'> +7.5900782e+01 </wgt>
<wgt id='1852'> +7.5878910e+01 </wgt>
<wgt id='1853'> +7.5856847e+01 </wgt>
<wgt id='1854'> +7.5834959e+01 </wgt>
<wgt id='1855'> +7.6492352e+01 </wgt>
<wgt id='1856'> +7.6810812e+01 </wgt>
<wgt id='1857'> +7.6543094e+01 </wgt>
<wgt id='1858'> +7.6333722e+01 </wgt>
<wgt id='1859'> +7.6778503e+01 </wgt>
<wgt id='1860'> +7.7232376e+01 </wgt>
<wgt id='1861'> +7.6393000e+01 </wgt>
<wgt id='1862'> +7.6174762e+01 </wgt>
<wgt id='1863'> +7.6430222e+01 </wgt>
<wgt id='1864'> +7.6398091e+01 </wgt>
<wgt id='1865'> +7.6483472e+01 </wgt>
<wgt id='1866'> +7.7007271e+01 </wgt>
<wgt id='1867'> +7.6164512e+01 </wgt>
<wgt id='1868'> +7.6024723e+01 </wgt>
<wgt id='1869'> +7.5904548e+01 </wgt>
<wgt id='1870'> +7.6860842e+01 </wgt>
<wgt id='1871'> +7.6542923e+01 </wgt>
<wgt id='1872'> +7.6499717e+01 </wgt>
<wgt id='1873'> +7.6834085e+01 </wgt>
<wgt id='1874'> +7.5796322e+01 </wgt>
<wgt id='1875'> +7.6655178e+01 </wgt>
<wgt id='1876'> +7.6455807e+01 </wgt>
<wgt id='1877'> +7.6019653e+01 </wgt>
<wgt id='1878'> +7.6409385e+01 </wgt>
<wgt id='1879'> +7.6767861e+01 </wgt>
<wgt id='1880'> +7.6603594e+01 </wgt>
<wgt id='1881'> +7.6345427e+01 </wgt>
<wgt id='1882'> +7.6433380e+01 </wgt>
<wgt id='1883'> +7.6491307e+01 </wgt>
<wgt id='1884'> +7.6418172e+01 </wgt>
<wgt id='1885'> +7.6588707e+01 </wgt>
<wgt id='1886'> +7.6565727e+01 </wgt>
<wgt id='1887'> +7.6698398e+01 </wgt>
<wgt id='1888'> +7.6873810e+01 </wgt>
<wgt id='1889'> +7.6355322e+01 </wgt>
<wgt id='1890'> +7.6998503e+01 </wgt>
<wgt id='1891'> +7.5908222e+01 </wgt>
<wgt id='1892'> +7.6708320e+01 </wgt>
<wgt id='1893'> +7.6334703e+01 </wgt>
<wgt id='1894'> +7.6247217e+01 </wgt>
<wgt id='1895'> +7.6293186e+01 </wgt>
<wgt id='1896'> +7.6454310e+01 </wgt>
<wgt id='1897'> +7.6420020e+01 </wgt>
<wgt id='1898'> +7.6429397e+01 </wgt>
<wgt id='1899'> +7.6684334e+01 </wgt>
<wgt id='1900'> +7.6547240e+01 </wgt>
<wgt id='1901'> +7.6467472e+01 </wgt>
<wgt id='1902'> +7.6548419e+01 </wgt>
<wgt id='1903'> +7.6565095e+01 </wgt>
<wgt id='1904'> +7.6478231e+01 </wgt>
<wgt id='1905'> +7.6487443e+01 </wgt>
<wgt id='1906'> +7.6497857e+01 </wgt>
<wgt id='1907'> +7.6562258e+01 </wgt>
<wgt id='1908'> +7.6452449e+01 </wgt>
<wgt id='1909'> +7.6427936e+01 </wgt>
<wgt id='1910'> +7.6463728e+01 </wgt>
<wgt id='1911'> +7.6649558e+01 </wgt>
<wgt id='1912'> +7.6536905e+01 </wgt>
<wgt id='1913'> +7.6446309e+01 </wgt>
<wgt id='1914'> +7.6414748e+01 </wgt>
<wgt id='1915'> +7.6503115e+01 </wgt>
<wgt id='1916'> +7.6486103e+01 </wgt>
<wgt id='1917'> +7.6539681e+01 </wgt>
<wgt id='1918'> +7.6483317e+01 </wgt>
<wgt id='1919'> +7.6482364e+01 </wgt>
<wgt id='1920'> +7.6505830e+01 </wgt>
<wgt id='1921'> +7.6525958e+01 </wgt>
<wgt id='1922'> +7.6541893e+01 </wgt>
<wgt id='1923'> +7.6488449e+01 </wgt>
<wgt id='1924'> +7.6562000e+01 </wgt>
<wgt id='1925'> +7.6538464e+01 </wgt>
<wgt id='1926'> +7.6489776e+01 </wgt>
<wgt id='1927'> +7.6533477e+01 </wgt>
<wgt id='1928'> +7.6510615e+01 </wgt>
<wgt id='1929'> +7.6520188e+01 </wgt>
<wgt id='1930'> +7.6468896e+01 </wgt>
<wgt id='1931'> +7.6485507e+01 </wgt>
<wgt id='1932'> +7.6480986e+01 </wgt>
<wgt id='1933'> +7.6508614e+01 </wgt>
<wgt id='1934'> +7.6473633e+01 </wgt>
<wgt id='1935'> +7.6549250e+01 </wgt>
<wgt id='1936'> +7.6503512e+01 </wgt>
<wgt id='1937'> +7.6519738e+01 </wgt>
<wgt id='1938'> +7.6486062e+01 </wgt>
<wgt id='1939'> +7.6471883e+01 </wgt>
<wgt id='1940'> +7.6465882e+01 </wgt>
<wgt id='1941'> +7.6510862e+01 </wgt>
<wgt id='1942'> +7.6442707e+01 </wgt>
<wgt id='1943'> +7.6477863e+01 </wgt>
<wgt id='1944'> +7.6498762e+01 </wgt>
<wgt id='1945'> +7.6474464e+01 </wgt>
<wgt id='1946'> +7.6495329e+01 </wgt>
<wgt id='1947'> +7.6499873e+01 </wgt>
<wgt id='1948'> +7.6473415e+01 </wgt>
<wgt id='1949'> +7.6478946e+01 </wgt>
<wgt id='1950'> +7.6484373e+01 </wgt>
<wgt id='1951'> +7.6467127e+01 </wgt>
<wgt id='1952'> +7.6495762e+01 </wgt>
<wgt id='1953'> +7.6497564e+01 </wgt>
<wgt id='1954'> +7.6476140e+01 </wgt>
<wgt id='1955'> +7.6497062e+01 </wgt>
<wgt id='1956'> +7.6491819e+01 </wgt>
<wgt id='1957'> +7.6495265e+01 </wgt>
<wgt id='1958'> +7.6492913e+01 </wgt>
<wgt id='1959'> +7.6493006e+01 </wgt>
<wgt id='1960'> +7.6493990e+01 </wgt>
<wgt id='1961'> +7.6492589e+01 </wgt>
<wgt id='1962'> +7.6495883e+01 </wgt>
</rwgt>
</event>
<event npLO=" -1 " npNLO=" 1 ">
 7      1 +1.5146096e+02 1.63848660e+01 7.54677110e-03 1.59897080e-01
       -1 -1    0    0    0  501 +0.0000000000e+00 +0.0000000000e+00 +9.4586146000e+00 9.4586146000e+00 0.0000000000e+00 0.0000e+00 9.0000e+00
        1 -1    0    0  502    0 +0.0000000000e+00 +0.0000000000e+00 -3.1703271000e+02 3.1703271000e+02 0.0000000000e+00 0.0000e+00 9.0000e+00
       23  2    1    2    0    0 -5.7833479000e+00 -1.5330255000e+01 -2.3446832000e+02 2.5157191000e+02 8.9691530000e+01 0.0000e+00 0.0000e+00
       11  1    3    3    0    0 +8.8549435000e+00 +3.5474897000e+01 -1.2026011000e+02 1.2569555000e+02 0.0000000000e+00 0.0000e+00 9.0000e+00
      -11  1    3    3    0    0 -9.9285216000e+00 -3.0328861000e+01 -6.9634414000e+01 7.6598740000e+01 0.0000000000e+00 0.0000e+00 9.0000e+00
       22  1    3    3    0    0 -4.7097698000e+00 -2.0476291000e+01 -4.4573797000e+01 4.9277620000e+01 0.0000000000e+00 0.0000e+00 9.0000e+00
       21  1    1    2  502  501 +5.7833479000e+00 +1.5330255000e+01 -7.3105777000e+01 7.4919413000e+01 0.0000000000e+00 0.0000e+00 9.0000e+00
#aMCatNLO 1  0  0  1  6 0.11385360E+02 0.00000000E+00 -9  7  0 0.00000000E+00 0.00000000E+00 0.00000000E+00 0.00000000E+00 0.00000000E+00
<rwgt>
<wgt id='1001'> +1.5146000e+02 </wgt>
<wgt id='1002'> +1.5146000e+02 </wgt>
<wgt id='1003'> +1.4601000e+02 </wgt>
<wgt id='1004'> +1.5643000e+02 </wgt>
<wgt id='1005'> +1.5532000e+02 </wgt>
<wgt id='1006'> +1.5790000e+02 </wgt>
<wgt id='1007'> +1.2964000e+02 </wgt>
<wgt id='1008'> +1.4259000e+02 </wgt>
<wgt id='1009'> +1.5918000e+02 </wgt>
<wgt id='1010'> +1.5154000e+02 </wgt>
<wgt id='1011'> +1.5125000e+02 </wgt>
<wgt id='1012'> +1.5386000e+02 </wgt>
<wgt id='1013'> +1.4816000e+02 </wgt>
<wgt id='1014'> +1.4479000e+02 </wgt>
<wgt id='1015'> +1.5894000e+02 </wgt>
<wgt id='1016'> +1.5124000e+02 </wgt>
<wgt id='1017'> +1.5213000e+02 </wgt>
<wgt id='1018'> +1.4245000e+02 </wgt>
<wgt id='1019'> +1.4784000e+02 </wgt>
<wgt id='1020'> +1.3936000e+02 </wgt>
<wgt id='1021'> +1.5742000e+02 </wgt>
<wgt id='1022'> +1.4871000e+02 </wgt>
<wgt id='1023'> +1.6369000e+02 </wgt>
<wgt id='1024'> +1.5543000e+02 </wgt>
<wgt id='1025'> +1.5638000e+02 </wgt>
<wgt id='1026'> +1.4758000e+02 </wgt>
<wgt id='1027'> +1.5110000e+02 </wgt>
<wgt id='1028'> +1.5513000e+02 </wgt>
<wgt id='1029'> +1.4870000e+02 </wgt>
<wgt id='1030'> +1.4914000e+02 </wgt>
<wgt id='1031'> +1.5135000e+02 </wgt>
<wgt id='1032'> +1.5208000e+02 </wgt>
<wgt id='1033'> +1.5759000e+02 </wgt>
<wgt id='1034'> +1.4834000e+02 </wgt>
<wgt id='1035'> +1.5770000e+02 </wgt>
<wgt id='1036'> +1.4440000e+02 </wgt>
<wgt id='1037'> +1.5511000e+02 </wgt>
<wgt id='1038'> +1.4804000e+02 </wgt>
<wgt id='1039'> +1.5033000e+02 </wgt>
<wgt id='1040'> +1.4336000e+02 </wgt>
<wgt id='1041'> +1.4979000e+02 </wgt>
<wgt id='1042'> +1.5328000e+02 </wgt>
<wgt id='1043'> +1.6251000e+02 </wgt>
<wgt id='1044'> +1.5490000e+02 </wgt>
<wgt id='1045'> +1.5194000e+02 </wgt>
<wgt id='1046'> +1.5021000e+02 </wgt>
<wgt id='1047'> +1.5714000e+02 </wgt>
<wgt id='1048'> +1.4914000e+02 </wgt>
<wgt id='1049'> +1.5119000e+02 </wgt>
<wgt id='1050'> +1.5159000e+02 </wgt>
<wgt id='1051'> +1.4272000e+02 </wgt>
<wgt id='1052'> +1.5744000e+02 </wgt>
<wgt id='1053'> +1.5679000e+02 </wgt>
<wgt id='1054'> +1.5129000e+02 </wgt>
<wgt id='1055'> +1.4360000e+02 </wgt>
<wgt id='1056'> +1.5643000e+02 </wgt>
<wgt id='1057'> +1.5289000e+02 </wgt>
<wgt id='1058'> +1.4845000e+02 </wgt>
<wgt id='1059'> +1.5427000e+02 </wgt>
<wgt id='1060'> +1.5456000e+02 </wgt>
<wgt id='1061'> +1.5264000e+02 </wgt>
<wgt id='1062'> +1.5549000e+02 </wgt>
<wgt id='1063'> +1.5285000e+02 </wgt>
<wgt id='1064'> +1.5296000e+02 </wgt>
<wgt id='1065'> +1.3837000e+02 </wgt>
<wgt id='1066'> +1.4646000e+02 </wgt>
<wgt id='1067'> +1.5192000e+02 </wgt>
<wgt id='1068'> +1.4956000e+02 </wgt>
<wgt id='1069'> +1.6761000e+02 </wgt>
<wgt id='1070'> +1.5770000e+02 </wgt>
<wgt id='1071'> +1.4944000e+02 </wgt>
<wgt id='1072'> +1.4995000e+02 </wgt>
<wgt id='1073'> +1.5111000e+02 </wgt>
<wgt id='1074'> +1.4052000e+02 </wgt>
<wgt id='1075'> +1.4318000e+02 </wgt>
<wgt id='1076'> +1.4754000e+02 </wgt>
<wgt id='1077'> +1.5486000e+02 </wgt>
<wgt id='1078'> +1.3716000e+02 </wgt>
<wgt id='1079'> +1.4859000e+02 </wgt>
<wgt id='1080'> +1.5525000e+02 </wgt>
<wgt id='1081'> +1.5149000e+02 </wgt>
<wgt id='1082'> +1.5598000e+02 </wgt>
<wgt id='1083'> +1.5531000e+02 </wgt>
<wgt id='1084'> +1.5442000e+02 </wgt>
<wgt id='1085'> +1.4994000e+02 </wgt>
<wgt id='1086'> +1.5368000e+02 </wgt>
<wgt id='1087'> +1.5269000e+02 </wgt>
<wgt id='1088'> +1.5213000e+02 </wgt>
<wgt id='1089'> +1.5578000e+02 </wgt>
<wgt id='1090'> +1.5869000e+02 </wgt>
<wgt id='1091'> +1.4590000e+02 </wgt>
<wgt id='1092'> +1.5453000e+02 </wgt>
<wgt id='1093'> +1.6021000e+02 </wgt>
<wgt id='1094'> +1.4912000e+02 </wgt>
<wgt id='1095'> +1.4894000e+02 </wgt>
<wgt id='1096'> +1.5315000e+02 </wgt>
<wgt id='1097'> +1.4791000e+02 </wgt>
<wgt id='1098'> +1.5233000e+02 </wgt>
<wgt id='1099'> +1.5312000e+02 </wgt>
<wgt id='1100'> +1.5527000e+02 </wgt>
<wgt id='1101'> +1.5682000e+02 </wgt>
<wgt id='1102'> +1.4673000e+02 </wgt>
<wgt id='1103'> +1.4814000e+02 </wgt>
<wgt id='1104'> +1.5623000e+02 </wgt>
<wgt id='1105'> +1.5146096e+02 </wgt>
<wgt id='1106'> +6.3297814e+01 </wgt>
<wgt id='1107'> +9.3834088e+01 </wgt>
<wgt id='1108'> +7.0228523e+01 </wgt>
<wgt id='1109'> +5.9691438e+01 </wgt>
<wgt id='1110'> +8.5254235e+01 </wgt>
<wgt id='1111'> +7.8275290e+01 </wgt>
<wgt id='1112'> +6.4574882e+01 </wgt>
<wgt id='1113'> +9.8496880e+01 </wgt>
<wgt id='1114'> +8.4460910e+01 </wgt>
<wgt id='1115'> +8.9624620e+01 </wgt>
<wgt id='1116'> +8.6350026e+01 </wgt>
<wgt id='1117'> +7.6616943e+01 </wgt>
<wgt id='1118'> +8.2172702e+01 </wgt>
<wgt id='1119'> +8.3721886e+01 </wgt>
<wgt id='1120'> +8.9100959e+01 </wgt>
<wgt id='1121'> +8.6340850e+01 </wgt>
<wgt id='1122'> +8.0447159e+01 </wgt>
<wgt id='1123'> +8.4937429e+01 </wgt>
<wgt id='1124'> +8.2885947e+01 </wgt>
<wgt id='1125'> +8.2679936e+01 </wgt>
<wgt id='1126'> +8.3530475e+01 </wgt>
<wgt id='1127'> +8.3473739e+01 </wgt>
<wgt id='1128'> +8.2974449e+01 </wgt>
<wgt id='1129'> +8.6012852e+01 </wgt>
<wgt id='1130'> +8.5036896e+01 </wgt>
<wgt id='1131'> +8.9060567e+01 </wgt>
<wgt id='1132'> +8.5202902e+01 </wgt>
<wgt id='1133'> +8.5297294e+01 </wgt>
<wgt id='1134'> +8.0980535e+01 </wgt>
<wgt id='1135'> +8.3936812e+01 </wgt>
<wgt id='1136'> +8.5542963e+01 </wgt>
<wgt id='1137'> +8.7659616e+01 </wgt>
<wgt id='1138'> +8.3951728e+01 </wgt>
<wgt id='1139'> +8.5291560e+01 </wgt>
<wgt id='1140'> +8.1573030e+01 </wgt>
<wgt id='1141'> +9.0213655e+01 </wgt>
<wgt id='1142'> +8.5899430e+01 </wgt>
<wgt id='1143'> +8.6436618e+01 </wgt>
<wgt id='1144'> +8.9691108e+01 </wgt>
<wgt id='1145'> +8.2366740e+01 </wgt>
<wgt id='1146'> +8.5231751e+01 </wgt>
<wgt id='1147'> +8.8062426e+01 </wgt>
<wgt id='1148'> +8.2154150e+01 </wgt>
<wgt id='1149'> +8.3573917e+01 </wgt>
<wgt id='1150'> +8.5251614e+01 </wgt>
<wgt id='1151'> +8.4038637e+01 </wgt>
<wgt id='1152'> +8.4105723e+01 </wgt>
<wgt id='1153'> +8.2299350e+01 </wgt>
<wgt id='1154'> +8.0212859e+01 </wgt>
<wgt id='1155'> +8.3410031e+01 </wgt>
<wgt id='1156'> +8.7331898e+01 </wgt>
<wgt id='1157'> +8.6383987e+01 </wgt>
<wgt id='1158'> +8.6039408e+01 </wgt>
<wgt id='1159'> +8.3765880e+01 </wgt>
<wgt id='1160'> +8.3115176e+01 </wgt>
<wgt id='1161'> +8.5824256e+01 </wgt>
<wgt id='1162'> +7.9614267e+01 </wgt>
<wgt id='1163'> +8.8584897e+01 </wgt>
<wgt id='1164'> +8.4713214e+01 </wgt>
<wgt id='1165'> +8.3207499e+01 </wgt>
<wgt id='1166'> +8.4665226e+01 </wgt>
<wgt id='1167'> +8.6777441e+01 </wgt>
<wgt id='1168'> +8.7768511e+01 </wgt>
<wgt id='1169'> +7.8019299e+01 </wgt>
<wgt id='1170'> +8.6870403e+01 </wgt>
<wgt id='1171'> +8.8971472e+01 </wgt>
<wgt id='1172'> +8.6416802e+01 </wgt>
<wgt id='1173'> +8.6778528e+01 </wgt>
<wgt id='1174'> +8.3090037e+01 </wgt>
<wgt id='1175'> +8.5243015e+01 </wgt>
<wgt id='1176'> +8.5538007e+01 </wgt>
<wgt id='1177'> +8.2964756e+01 </wgt>
<wgt id='1178'> +7.8626150e+01 </wgt>
<wgt id='1179'> +8.6489686e+01 </wgt>
<wgt id='1180'> +8.6991043e+01 </wgt>
<wgt id='1181'> +8.1879359e+01 </wgt>
<wgt id='1182'> +8.6658695e+01 </wgt>
<wgt id='1183'> +8.5136414e+01 </wgt>
<wgt id='1184'> +8.4543921e+01 </wgt>
<wgt id='1185'> +8.4326859e+01 </wgt>
<wgt id='1186'> +8.6344389e+01 </wgt>
<wgt id='1187'> +8.0512330e+01 </wgt>
<wgt id='1188'> +8.0215388e+01 </wgt>
<wgt id='1189'> +8.3514622e+01 </wgt>
<wgt id='1190'> +8.3721499e+01 </wgt>
<wgt id='1191'> +8.1206332e+01 </wgt>
<wgt id='1192'> +8.7253082e+01 </wgt>
<wgt id='1193'> +8.3814753e+01 </wgt>
<wgt id='1194'> +8.2528025e+01 </wgt>
<wgt id='1195'> +8.4850520e+01 </wgt>
<wgt id='1196'> +8.5036896e+01 </wgt>
<wgt id='1197'> +8.0034315e+01 </wgt>
<wgt id='1198'> +8.3858464e+01 </wgt>
<wgt id='1199'> +8.3258130e+01 </wgt>
<wgt id='1200'> +9.2867443e+01 </wgt>
<wgt id='1201'> +8.6318220e+01 </wgt>
<wgt id='1202'> +8.6625231e+01 </wgt>
<wgt id='1203'> +7.6244243e+01 </wgt>
<wgt id='1204'> +8.3842681e+01 </wgt>
<wgt id='1205'> +8.5754893e+01 </wgt>
<wgt id='1206'> +8.2760495e+01 </wgt>
<wgt id='1207'> +8.4407067e+01 </wgt>
<wgt id='1208'> +8.8211053e+01 </wgt>
<wgt id='1209'> +8.4611777e+01 </wgt>
<wgt id='1210'> +8.5739488e+01 </wgt>
<wgt id='1211'> +8.2939912e+01 </wgt>
<wgt id='1212'> +8.2575594e+01 </wgt>
<wgt id='1213'> +7.9932073e+01 </wgt>
<wgt id='1214'> +8.4398454e+01 </wgt>
<wgt id='1215'> +8.1901623e+01 </wgt>
<wgt id='1216'> +8.1318915e+01 </wgt>
<wgt id='1217'> +8.1300503e+01 </wgt>
<wgt id='1218'> +8.1572125e+01 </wgt>
<wgt id='1219'> +8.1158416e+01 </wgt>
<wgt id='1220'> +8.1860756e+01 </wgt>
<wgt id='1221'> +8.1587850e+01 </wgt>
<wgt id='1222'> +8.0819540e+01 </wgt>
<wgt id='1223'> +8.1827549e+01 </wgt>
<wgt id='1224'> +8.2039579e+01 </wgt>
<wgt id='1225'> +8.1859625e+01 </wgt>
<wgt id='1226'> +8.0925799e+01 </wgt>
<wgt id='1227'> +8.0962812e+01 </wgt>
<wgt id='1228'> +8.1374050e+01 </wgt>
<wgt id='1229'> +8.2036566e+01 </wgt>
<wgt id='1230'> +8.1091077e+01 </wgt>
<wgt id='1231'> +8.1074189e+01 </wgt>
<wgt id='1232'> +8.2284713e+01 </wgt>
<wgt id='1233'> +8.0949007e+01 </wgt>
<wgt id='1234'> +8.1689704e+01 </wgt>
<wgt id='1235'> +8.1495624e+01 </wgt>
<wgt id='1236'> +8.1181703e+01 </wgt>
<wgt id='1237'> +8.1613397e+01 </wgt>
<wgt id='1238'> +8.1080688e+01 </wgt>
<wgt id='1239'> +8.0574094e+01 </wgt>
<wgt id='1240'> +8.2289960e+01 </wgt>
<wgt id='1241'> +8.1242480e+01 </wgt>
<wgt id='1242'> +8.1597892e+01 </wgt>
<wgt id='1243'> +8.0951159e+01 </wgt>
<wgt id='1244'> +8.1472669e+01 </wgt>
<wgt id='1245'> +8.2096001e+01 </wgt>
<wgt id='1246'> +8.0650052e+01 </wgt>
<wgt id='1247'> +8.0932003e+01 </wgt>
<wgt id='1248'> +8.1732098e+01 </wgt>
<wgt id='1249'> +8.1070302e+01 </wgt>
<wgt id='1250'> +8.1246985e+01 </wgt>
<wgt id='1251'> +8.1652912e+01 </wgt>
<wgt id='1252'> +8.1379878e+01 </wgt>
<wgt id='1253'> +8.1029566e+01 </wgt>
<wgt id='1254'> +8.1314833e+01 </wgt>
<wgt id='1255'> +8.1388147e+01 </wgt>
<wgt id='1256'> +8.1205979e+01 </wgt>
<wgt id='1257'> +8.1624242e+01 </wgt>
<wgt id='1258'> +8.0927192e+01 </wgt>
<wgt id='1259'> +8.1161338e+01 </wgt>
<wgt id='1260'> +8.1239360e+01 </wgt>
<wgt id='1261'> +8.1119348e+01 </wgt>
<wgt id='1262'> +8.1547739e+01 </wgt>
<wgt id='1263'> +8.1576846e+01 </wgt>
<wgt id='1264'> +8.1424306e+01 </wgt>
<wgt id='1265'> +8.1256207e+01 </wgt>
<wgt id='1266'> +8.1363907e+01 </wgt>
<wgt id='1267'> +8.1257825e+01 </wgt>
<wgt id='1268'> +8.1229196e+01 </wgt>
<wgt id='1269'> +8.1171308e+01 </wgt>
<wgt id='1270'> +8.1264238e+01 </wgt>
<wgt id='1271'> +8.1452721e+01 </wgt>
<wgt id='1272'> +8.1186639e+01 </wgt>
<wgt id='1273'> +8.1316591e+01 </wgt>
<wgt id='1274'> +8.1299532e+01 </wgt>
<wgt id='1275'> +8.1433142e+01 </wgt>
<wgt id='1276'> +8.1250257e+01 </wgt>
<wgt id='1277'> +8.1336676e+01 </wgt>
<wgt id='1278'> +8.1321424e+01 </wgt>
<wgt id='1279'> +8.1447204e+01 </wgt>
<wgt id='1280'> +8.1319549e+01 </wgt>
<wgt id='1281'> +8.1243807e+01 </wgt>
<wgt id='1282'> +8.1447388e+01 </wgt>
<wgt id='1283'> +8.1276053e+01 </wgt>
<wgt id='1284'> +8.1356879e+01 </wgt>
<wgt id='1285'> +8.1401302e+01 </wgt>
<wgt id='1286'> +8.1267267e+01 </wgt>
<wgt id='1287'> +8.1306093e+01 </wgt>
<wgt id='1288'> +8.1424093e+01 </wgt>
<wgt id='1289'> +8.1303377e+01 </wgt>
<wgt id='1290'> +8.1326809e+01 </wgt>
<wgt id='1291'> +8.1326770e+01 </wgt>
<wgt id='1292'> +8.1337370e+01 </wgt>
<wgt id='1293'> +8.1338841e+01 </wgt>
<wgt id='1294'> +8.1396793e+01 </wgt>
<wgt id='1295'> +8.1339925e+01 </wgt>
<wgt id='1296'> +8.1375549e+01 </wgt>
<wgt id='1297'> +8.1341001e+01 </wgt>
<wgt id='1298'> +8.1263183e+01 </wgt>
<wgt id='1299'> +8.1257727e+01 </wgt>
<wgt id='1300'> +8.1411651e+01 </wgt>
<wgt id='1301'> +8.1269331e+01 </wgt>
<wgt id='1302'> +8.1335883e+01 </wgt>
<wgt id='1303'> +8.1225291e+01 </wgt>
<wgt id='1304'> +8.1316490e+01 </wgt>
<wgt id='1305'> +8.1333962e+01 </wgt>
<wgt id='1306'> +8.1399162e+01 </wgt>
<wgt id='1307'> +8.1416132e+01 </wgt>
<wgt id='1308'> +8.1346989e+01 </wgt>
<wgt id='1309'> +8.1417947e+01 </wgt>
<wgt id='1310'> +8.1298980e+01 </wgt>
<wgt id='1311'> +8.1305681e+01 </wgt>
<wgt id='1312'> +8.1246896e+01 </wgt>
<wgt id='1313'> +8.1248119e+01 </wgt>
<wgt id='1314'> +8.1349278e+01 </wgt>
<wgt id='1315'> +8.1351287e+01 </wgt>
<wgt id='1316'> +8.1376315e+01 </wgt>
<wgt id='1317'> +7.7208302e+01 </wgt>
<wgt id='1318'> +8.5626564e+01 </wgt>
<wgt id='1319'> +7.8090188e+01 </wgt>
<wgt id='1320'> +7.4755536e+01 </wgt>
<wgt id='1321'> +7.7620862e+01 </wgt>
<wgt id='1322'> +7.2880915e+01 </wgt>
<wgt id='1323'> +7.6275305e+01 </wgt>
<wgt id='1324'> +7.5084369e+01 </wgt>
<wgt id='1325'> +7.7581445e+01 </wgt>
<wgt id='1326'> +7.3329081e+01 </wgt>
<wgt id='1327'> +7.6025839e+01 </wgt>
<wgt id='1328'> +7.5076692e+01 </wgt>
<wgt id='1329'> +7.5500524e+01 </wgt>
<wgt id='1330'> +7.2780776e+01 </wgt>
<wgt id='1331'> +7.2599181e+01 </wgt>
<wgt id='1332'> +7.6837449e+01 </wgt>
<wgt id='1333'> +7.2674192e+01 </wgt>
<wgt id='1334'> +7.5328250e+01 </wgt>
<wgt id='1335'> +7.6006259e+01 </wgt>
<wgt id='1336'> +7.2662352e+01 </wgt>
<wgt id='1337'> +7.7843659e+01 </wgt>
<wgt id='1338'> +7.1340176e+01 </wgt>
<wgt id='1339'> +7.5168058e+01 </wgt>
<wgt id='1340'> +7.4289223e+01 </wgt>
<wgt id='1341'> +7.5210892e+01 </wgt>
<wgt id='1342'> +7.3897719e+01 </wgt>
<wgt id='1343'> +7.6708151e+01 </wgt>
<wgt id='1344'> +7.2965332e+01 </wgt>
<wgt id='1345'> +7.5931103e+01 </wgt>
<wgt id='1346'> +7.3904461e+01 </wgt>
<wgt id='1347'> +7.5715641e+01 </wgt>
<wgt id='1348'> +7.3546467e+01 </wgt>
<wgt id='1349'> +7.3205008e+01 </wgt>
<wgt id='1350'> +7.5274104e+01 </wgt>
<wgt id='1351'> +7.4817569e+01 </wgt>
<wgt id='1352'> +7.4663774e+01 </wgt>
<wgt id='1353'> +7.3723999e+01 </wgt>
<wgt id='1354'> +7.6958876e+01 </wgt>
<wgt id='1355'> +7.7675532e+01 </wgt>
<wgt id='1356'> +7.2126768e+01 </wgt>
<wgt id='1357'> +7.5120507e+01 </wgt>
<wgt id='1358'> +7.3692179e+01 </wgt>
<wgt id='1359'> +7.4384838e+01 </wgt>
<wgt id='1360'> +7.4366827e+01 </wgt>
<wgt id='1361'> +7.4817797e+01 </wgt>
<wgt id='1362'> +7.5507040e+01 </wgt>
<wgt id='1363'> +7.4056779e+01 </wgt>
<wgt id='1364'> +7.4883511e+01 </wgt>
<wgt id='1365'> +7.4847898e+01 </wgt>
<wgt id='1366'> +7.4307837e+01 </wgt>
<wgt id='1367'> +7.2968003e+01 </wgt>
<wgt id='1368'> +7.6139855e+01 </wgt>
<wgt id='1369'> +7.4206751e+01 </wgt>
<wgt id='1370'> +7.5932882e+01 </wgt>
<wgt id='1371'> +7.3778153e+01 </wgt>
<wgt id='1372'> +7.3370545e+01 </wgt>
<wgt id='1373'> +7.3727072e+01 </wgt>
<wgt id='1374'> +7.3942493e+01 </wgt>
<wgt id='1375'> +7.3604007e+01 </wgt>
<wgt id='1376'> +7.6901872e+01 </wgt>
<wgt id='1377'> +7.0465039e+01 </wgt>
<wgt id='1378'> +7.9131230e+01 </wgt>
<wgt id='1379'> +8.1365922e+01 </wgt>
<wgt id='1380'> +7.6482154e+01 </wgt>
<wgt id='1381'> +8.6567187e+01 </wgt>
<wgt id='1382'> +5.6900389e+01 </wgt>
<wgt id='1383'> +7.4746350e+01 </wgt>
<wgt id='1384'> +8.4578400e+01 </wgt>
<wgt id='1385'> +8.1628243e+01 </wgt>
<wgt id='1386'> +8.1521101e+01 </wgt>
<wgt id='1387'> +8.1737802e+01 </wgt>
<wgt id='1388'> +8.1346295e+01 </wgt>
<wgt id='1389'> +8.2116863e+01 </wgt>
<wgt id='1390'> +8.2173466e+01 </wgt>
<wgt id='1391'> +8.0987319e+01 </wgt>
<wgt id='1392'> +8.1562346e+01 </wgt>
<wgt id='1393'> +8.1688339e+01 </wgt>
<wgt id='1394'> +8.1218784e+01 </wgt>
<wgt id='1395'> +8.2130234e+01 </wgt>
<wgt id='1396'> +8.2037807e+01 </wgt>
<wgt id='1397'> +8.1414353e+01 </wgt>
<wgt id='1398'> +8.0192160e+01 </wgt>
<wgt id='1399'> +8.2697379e+01 </wgt>
<wgt id='1400'> +8.1360537e+01 </wgt>
<wgt id='1401'> +8.1823163e+01 </wgt>
<wgt id='1402'> +8.1825690e+01 </wgt>
<wgt id='1403'> +8.1540186e+01 </wgt>
<wgt id='1404'> +7.8972962e+01 </wgt>
<wgt id='1405'> +8.2991317e+01 </wgt>
<wgt id='1406'> +8.1135134e+01 </wgt>
<wgt id='1407'> +8.2491478e+01 </wgt>
<wgt id='1408'> +8.0977653e+01 </wgt>
<wgt id='1409'> +8.2945579e+01 </wgt>
<wgt id='1410'> +8.1577219e+01 </wgt>
<wgt id='1411'> +8.1777925e+01 </wgt>
<wgt id='1412'> +8.2053032e+01 </wgt>
<wgt id='1413'> +8.0766674e+01 </wgt>
<wgt id='1414'> +8.1480466e+01 </wgt>
<wgt id='1415'> +8.1773464e+01 </wgt>
<wgt id='1416'> +8.0838515e+01 </wgt>
<wgt id='1417'> +8.2017968e+01 </wgt>
<wgt id='1418'> +8.1183278e+01 </wgt>
<wgt id='1419'> +8.2476696e+01 </wgt>
<wgt id='1420'> +8.1858480e+01 </wgt>
<wgt id='1421'> +8.1993562e+01 </wgt>
<wgt id='1422'> +8.2370845e+01 </wgt>
<wgt id='1423'> +8.0778942e+01 </wgt>
<wgt id='1424'> +8.1922661e+01 </wgt>
<wgt id='1425'> +8.0927535e+01 </wgt>
<wgt id='1426'> +8.2768395e+01 </wgt>
<wgt id='1427'> +8.1834101e+01 </wgt>
<wgt id='1428'> +8.1345006e+01 </wgt>
<wgt id='1429'> +8.0549047e+01 </wgt>
<wgt id='1430'> +8.2338436e+01 </wgt>
<wgt id='1431'> +8.2555926e+01 </wgt>
<wgt id='1432'> +8.2448466e+01 </wgt>
<wgt id='1433'> +8.2722863e+01 </wgt>
<wgt id='1434'> +8.1820147e+01 </wgt>
<wgt id='1435'> +8.1133191e+01 </wgt>
<wgt id='1436'> +5.4477555e+01 </wgt>
<wgt id='1437'> +5.4469546e+01 </wgt>
<wgt id='1438'> +5.4574691e+01 </wgt>
<wgt id='1439'> +5.4484239e+01 </wgt>
<wgt id='1440'> +5.4182373e+01 </wgt>
<wgt id='1441'> +5.5000136e+01 </wgt>
<wgt id='1442'> +5.4167890e+01 </wgt>
<wgt id='1443'> +5.4402039e+01 </wgt>
<wgt id='1444'> +5.4468657e+01 </wgt>
<wgt id='1445'> +5.3520474e+01 </wgt>
<wgt id='1446'> +5.5195593e+01 </wgt>
<wgt id='1447'> +5.4272909e+01 </wgt>
<wgt id='1448'> +5.4201044e+01 </wgt>
<wgt id='1449'> +5.4526947e+01 </wgt>
<wgt id='1450'> +5.4493563e+01 </wgt>
<wgt id='1451'> +5.4740910e+01 </wgt>
<wgt id='1452'> +5.4313379e+01 </wgt>
<wgt id='1453'> +5.4882828e+01 </wgt>
<wgt id='1454'> +5.4720554e+01 </wgt>
<wgt id='1455'> +5.4693936e+01 </wgt>
<wgt id='1456'> +5.4601070e+01 </wgt>
<wgt id='1457'> +5.5270418e+01 </wgt>
<wgt id='1458'> +5.5136379e+01 </wgt>
<wgt id='1459'> +5.4171864e+01 </wgt>
<wgt id='1460'> +5.4269089e+01 </wgt>
<wgt id='1461'> +5.4578607e+01 </wgt>
<wgt id='1462'> +5.3351821e+01 </wgt>
<wgt id='1463'> +5.5614252e+01 </wgt>
<wgt id='1464'> +5.3690043e+01 </wgt>
<wgt id='1465'> +7.3417327e+01 </wgt>
<wgt id='1466'> +7.5111156e+01 </wgt>
<wgt id='1467'> +7.4981761e+01 </wgt>
<wgt id='1468'> +7.4846345e+01 </wgt>
<wgt id='1469'> +7.6124571e+01 </wgt>
<wgt id='1470'> +7.4860770e+01 </wgt>
<wgt id='1471'> +7.5112323e+01 </wgt>
<wgt id='1472'> +7.4424304e+01 </wgt>
<wgt id='1473'> +7.4930386e+01 </wgt>
<wgt id='1474'> +7.5312092e+01 </wgt>
<wgt id='1475'> +7.6075690e+01 </wgt>
<wgt id='1476'> +7.5731004e+01 </wgt>
<wgt id='1477'> +7.3868832e+01 </wgt>
<wgt id='1478'> +7.4558624e+01 </wgt>
<wgt id='1479'> +7.3740094e+01 </wgt>
<wgt id='1480'> +7.4876600e+01 </wgt>
<wgt id='1481'> +7.4639599e+01 </wgt>
<wgt id='1482'> +7.4430485e+01 </wgt>
<wgt id='1483'> +7.5215630e+01 </wgt>
<wgt id='1484'> +7.6530175e+01 </wgt>
<wgt id='1485'> +7.4625816e+01 </wgt>
<wgt id='1486'> +7.5637037e+01 </wgt>
<wgt id='1487'> +7.5517378e+01 </wgt>
<wgt id='1488'> +7.5641308e+01 </wgt>
<wgt id='1489'> +7.5613809e+01 </wgt>
<wgt id='1490'> +7.4789397e+01 </wgt>
<wgt id='1491'> +7.5408262e+01 </wgt>
<wgt id='1492'> +7.4876832e+01 </wgt>
<wgt id='1493'> +7.5180649e+01 </wgt>
<wgt id='1494'> +7.5069904e+01 </wgt>
<wgt id='1495'> +7.4839006e+01 </wgt>
<wgt id='1496'> +7.4742488e+01 </wgt>
<wgt id='1497'> +7.5041642e+01 </wgt>
<wgt id='1498'> +7.5338861e+01 </wgt>
<wgt id='1499'> +7.4814161e+01 </wgt>
<wgt id='1500'> +7.4881130e+01 </wgt>
<wgt id='1501'> +7.5171754e+01 </wgt>
<wgt id='1502'> +7.5067451e+01 </wgt>
<wgt id='1503'> +7.5128496e+01 </wgt>
<wgt id='1504'> +7.4876299e+01 </wgt>
<wgt id='1505'> +7.4838913e+01 </wgt>
<wgt id='1506'> +7.5331864e+01 </wgt>
<wgt id='1507'> +7.4835756e+01 </wgt>
<wgt id='1508'> +7.5442377e+01 </wgt>
<wgt id='1509'> +7.5093129e+01 </wgt>
<wgt id='1510'> +7.5359118e+01 </wgt>
<wgt id='1511'> +7.5156886e+01 </wgt>
<wgt id='1512'> +7.5034476e+01 </wgt>
<wgt id='1513'> +7.5319031e+01 </wgt>
<wgt id='1514'> +7.5128400e+01 </wgt>
<wgt id='1515'> +7.5241401e+01 </wgt>
<wgt id='1516'> +7.5250065e+01 </wgt>
<wgt id='1517'> +7.5030553e+01 </wgt>
<wgt id='1518'> +7.5052313e+01 </wgt>
<wgt id='1519'> +7.4970979e+01 </wgt>
<wgt id='1520'> +7.4900075e+01 </wgt>
<wgt id='1521'> +7.5118784e+01 </wgt>
<wgt id='1522'> +7.5029044e+01 </wgt>
<wgt id='1523'> +7.5019245e+01 </wgt>
<wgt id='1524'> +7.5281487e+01 </wgt>
<wgt id='1525'> +7.5180713e+01 </wgt>
<wgt id='1526'> +7.5036222e+01 </wgt>
<wgt id='1527'> +7.5147390e+01 </wgt>
<wgt id='1528'> +7.5199772e+01 </wgt>
<wgt id='1529'> +7.5141716e+01 </wgt>
<wgt id='1530'> +7.5197099e+01 </wgt>
<wgt id='1531'> +7.5150590e+01 </wgt>
<wgt id='1532'> +7.5033829e+01 </wgt>
<wgt id='1533'> +7.5131112e+01 </wgt>
<wgt id='1534'> +7.5107119e+01 </wgt>
<wgt id='1535'> +7.5151608e+01 </wgt>
<wgt id='1536'> +7.5014794e+01 </wgt>
<wgt id='1537'> +7.5149181e+01 </wgt>
<wgt id='1538'> +7.5139929e+01 </wgt>
<wgt id='1539'> +7.5075727e+01 </wgt>
<wgt id='1540'> +7.5049823e+01 </wgt>
<wgt id='1541'> +7.5109710e+01 </wgt>
<wgt id='1542'> +7.5156144e+01 </wgt>
<wgt id='1543'> +7.5106557e+01 </wgt>
<wgt id='1544'> +7.5109704e+01 </wgt>
<wgt id='1545'> +7.5163456e+01 </wgt>
<wgt id='1546'> +7.5106548e+01 </wgt>
<wgt id='1547'> +7.5145720e+01 </wgt>
<wgt id='1548'> +7.5099103e+01 </wgt>
<wgt id='1549'> +7.5128078e+01 </wgt>
<wgt id='1550'> +7.5155697e+01 </wgt>
<wgt id='1551'> +7.5088917e+01 </wgt>
<wgt id='1552'> +7.5131407e+01 </wgt>
<wgt id='1553'> +7.5091026e+01 </wgt>
<wgt id='1554'> +7.5109234e+01 </wgt>
<wgt id='1555'> +7.5106720e+01 </wgt>
<wgt id='1556'> +7.5115938e+01 </wgt>
<wgt id='1557'> +7.5120132e+01 </wgt>
<wgt id='1558'> +7.5094034e+01 </wgt>
<wgt id='1559'> +7.5114221e+01 </wgt>
<wgt id='1560'> +7.5112228e+01 </wgt>
<wgt id='1561'> +7.5122153e+01 </wgt>
<wgt id='1562'> +7.5119000e+01 </wgt>
<wgt id='1563'> +7.5108237e+01 </wgt>
<wgt id='1564'> +7.5122384e+01 </wgt>
<wgt id='1565'> +7.5110230e+01 </wgt>
<wgt id='1566'> +7.5107274e+01 </wgt>
<wgt id='1567'> +7.1907294e+01 </wgt>
<wgt id='1568'> +7.8365645e+01 </wgt>
<wgt id='1569'> +8.2710528e+01 </wgt>
<wgt id='1570'> +8.3153883e+01 </wgt>
<wgt id='1571'> +8.2768429e+01 </wgt>
<wgt id='1572'> +8.2633998e+01 </wgt>
<wgt id='1573'> +8.3110226e+01 </wgt>
<wgt id='1574'> +8.3887204e+01 </wgt>
<wgt id='1575'> +8.3192510e+01 </wgt>
<wgt id='1576'> +8.2616979e+01 </wgt>
<wgt id='1577'> +8.2495180e+01 </wgt>
<wgt id='1578'> +8.1860932e+01 </wgt>
<wgt id='1579'> +8.2919762e+01 </wgt>
<wgt id='1580'> +8.3567364e+01 </wgt>
<wgt id='1581'> +8.3058202e+01 </wgt>
<wgt id='1582'> +8.3074848e+01 </wgt>
<wgt id='1583'> +8.1910654e+01 </wgt>
<wgt id='1584'> +8.5726439e+01 </wgt>
<wgt id='1585'> +8.2044466e+01 </wgt>
<wgt id='1586'> +8.2822482e+01 </wgt>
<wgt id='1587'> +8.2991182e+01 </wgt>
<wgt id='1588'> +8.1790555e+01 </wgt>
<wgt id='1589'> +8.2802619e+01 </wgt>
<wgt id='1590'> +8.2775039e+01 </wgt>
<wgt id='1591'> +8.1601082e+01 </wgt>
<wgt id='1592'> +8.2855303e+01 </wgt>
<wgt id='1593'> +8.2340255e+01 </wgt>
<wgt id='1594'> +8.2430378e+01 </wgt>
<wgt id='1595'> +8.2374946e+01 </wgt>
<wgt id='1596'> +8.2847725e+01 </wgt>
<wgt id='1597'> +8.2646593e+01 </wgt>
<wgt id='1598'> +8.2343093e+01 </wgt>
<wgt id='1599'> +8.2845264e+01 </wgt>
<wgt id='1600'> +8.2590928e+01 </wgt>
<wgt id='1601'> +8.3153684e+01 </wgt>
<wgt id='1602'> +8.3132608e+01 </wgt>
<wgt id='1603'> +8.2738693e+01 </wgt>
<wgt id='1604'> +8.2969842e+01 </wgt>
<wgt id='1605'> +8.2170021e+01 </wgt>
<wgt id='1606'> +8.3011170e+01 </wgt>
<wgt id='1607'> +8.2917192e+01 </wgt>
<wgt id='1608'> +8.2437172e+01 </wgt>
<wgt id='1609'> +8.2639119e+01 </wgt>
<wgt id='1610'> +8.2338449e+01 </wgt>
<wgt id='1611'> +8.2592889e+01 </wgt>
<wgt id='1612'> +8.2895733e+01 </wgt>
<wgt id='1613'> +8.3116543e+01 </wgt>
<wgt id='1614'> +8.2638870e+01 </wgt>
<wgt id='1615'> +8.2815749e+01 </wgt>
<wgt id='1616'> +8.2606037e+01 </wgt>
<wgt id='1617'> +8.2622105e+01 </wgt>
<wgt id='1618'> +8.2688858e+01 </wgt>
<wgt id='1619'> +8.2662080e+01 </wgt>
<wgt id='1620'> +8.2703051e+01 </wgt>
<wgt id='1621'> +8.2741727e+01 </wgt>
<wgt id='1622'> +8.2613035e+01 </wgt>
<wgt id='1623'> +8.2660362e+01 </wgt>
<wgt id='1624'> +8.2570856e+01 </wgt>
<wgt id='1625'> +8.3044456e+01 </wgt>
<wgt id='1626'> +8.2732698e+01 </wgt>
<wgt id='1627'> +8.2741034e+01 </wgt>
<wgt id='1628'> +8.2714841e+01 </wgt>
<wgt id='1629'> +8.2715004e+01 </wgt>
<wgt id='1630'> +8.2747375e+01 </wgt>
<wgt id='1631'> +8.2823973e+01 </wgt>
<wgt id='1632'> +8.2753680e+01 </wgt>
<wgt id='1633'> +8.2702541e+01 </wgt>
<wgt id='1634'> +8.2643401e+01 </wgt>
<wgt id='1635'> +8.2738152e+01 </wgt>
<wgt id='1636'> +8.2787665e+01 </wgt>
<wgt id='1637'> +8.2777958e+01 </wgt>
<wgt id='1638'> +8.2666741e+01 </wgt>
<wgt id='1639'> +8.2703319e+01 </wgt>
<wgt id='1640'> +8.2797867e+01 </wgt>
<wgt id='1641'> +8.2659287e+01 </wgt>
<wgt id='1642'> +8.2732661e+01 </wgt>
<wgt id='1643'> +8.2729144e+01 </wgt>
<wgt id='1644'> +8.2737178e+01 </wgt>
<wgt id='1645'> +8.2703723e+01 </wgt>
<wgt id='1646'> +8.2685271e+01 </wgt>
<wgt id='1647'> +8.2725055e+01 </wgt>
<wgt id='1648'> +8.2696285e+01 </wgt>
<wgt id='1649'> +8.2745091e+01 </wgt>
<wgt id='1650'> +8.2660447e+01 </wgt>
<wgt id='1651'> +8.2737329e+01 </wgt>
<wgt id='1652'> +8.2688961e+01 </wgt>
<wgt id='1653'> +8.2696694e+01 </wgt>
<wgt id='1654'> +8.2680057e+01 </wgt>
<wgt id='1655'> +8.2696789e+01 </wgt>
<wgt id='1656'> +8.2675412e+01 </wgt>
<wgt id='1657'> +8.2694990e+01 </wgt>
<wgt id='1658'> +8.2689246e+01 </wgt>
<wgt id='1659'> +8.2736055e+01 </wgt>
<wgt id='1660'> +8.2694383e+01 </wgt>
<wgt id='1661'> +8.2703208e+01 </wgt>
<wgt id='1662'> +8.2718361e+01 </wgt>
<wgt id='1663'> +8.2722598e+01 </wgt>
<wgt id='1664'> +8.2733861e+01 </wgt>
<wgt id='1665'> +8.2715447e+01 </wgt>
<wgt id='1666'> +8.2713786e+01 </wgt>
<wgt id='1667'> +8.2697566e+01 </wgt>
<wgt id='1668'> +8.2715289e+01 </wgt>
<wgt id='1669'> +8.2718451e+01 </wgt>
<wgt id='1670'> +7.8737528e+01 </wgt>
<wgt id='1671'> +8.6306172e+01 </wgt>
<wgt id='1672'> +7.5176839e+01 </wgt>
<wgt id='1673'> +7.5547061e+01 </wgt>
<wgt id='1674'> +7.3819314e+01 </wgt>
<wgt id='1675'> +7.5175896e+01 </wgt>
<wgt id='1676'> +7.5488249e+01 </wgt>
<wgt id='1677'> +7.5465231e+01 </wgt>
<wgt id='1678'> +7.6365717e+01 </wgt>
<wgt id='1679'> +7.5261780e+01 </wgt>
<wgt id='1680'> +7.5328466e+01 </wgt>
<wgt id='1681'> +7.6109707e+01 </wgt>
<wgt id='1682'> +7.5308134e+01 </wgt>
<wgt id='1683'> +7.4335766e+01 </wgt>
<wgt id='1684'> +7.5217177e+01 </wgt>
<wgt id='1685'> +7.5227679e+01 </wgt>
<wgt id='1686'> +7.3129419e+01 </wgt>
<wgt id='1687'> +7.5388860e+01 </wgt>
<wgt id='1688'> +7.5330834e+01 </wgt>
<wgt id='1689'> +7.4913994e+01 </wgt>
<wgt id='1690'> +7.5067127e+01 </wgt>
<wgt id='1691'> +7.5279845e+01 </wgt>
<wgt id='1692'> +7.5295159e+01 </wgt>
<wgt id='1693'> +7.5318575e+01 </wgt>
<wgt id='1694'> +7.5052340e+01 </wgt>
<wgt id='1695'> +7.5268001e+01 </wgt>
<wgt id='1696'> +7.5068829e+01 </wgt>
<wgt id='1697'> +7.5343563e+01 </wgt>
<wgt id='1698'> +7.4405347e+01 </wgt>
<wgt id='1699'> +7.5434258e+01 </wgt>
<wgt id='1700'> +7.5170309e+01 </wgt>
<wgt id='1701'> +7.5688587e+01 </wgt>
<wgt id='1702'> +7.5127280e+01 </wgt>
<wgt id='1703'> +7.1907294e+01 </wgt>
<wgt id='1704'> +7.8365645e+01 </wgt>
<wgt id='1705'> +8.2720723e+01 </wgt>
<wgt id='1706'> +8.3260089e+01 </wgt>
<wgt id='1707'> +8.6367232e+01 </wgt>
<wgt id='1708'> +8.2623573e+01 </wgt>
<wgt id='1709'> +8.2072485e+01 </wgt>
<wgt id='1710'> +8.2489416e+01 </wgt>
<wgt id='1711'> +8.2751079e+01 </wgt>
<wgt id='1712'> +8.2805816e+01 </wgt>
<wgt id='1713'> +8.2933014e+01 </wgt>
<wgt id='1714'> +8.2345403e+01 </wgt>
<wgt id='1715'> +8.2707594e+01 </wgt>
<wgt id='1716'> +8.2996182e+01 </wgt>
<wgt id='1717'> +8.2617792e+01 </wgt>
<wgt id='1718'> +8.2385351e+01 </wgt>
<wgt id='1719'> +8.2590500e+01 </wgt>
<wgt id='1720'> +8.2342116e+01 </wgt>
<wgt id='1721'> +8.2773160e+01 </wgt>
<wgt id='1722'> +8.2377285e+01 </wgt>
<wgt id='1723'> +8.2830499e+01 </wgt>
<wgt id='1724'> +8.3113510e+01 </wgt>
<wgt id='1725'> +8.2161861e+01 </wgt>
<wgt id='1726'> +8.1681075e+01 </wgt>
<wgt id='1727'> +8.2803986e+01 </wgt>
<wgt id='1728'> +8.2687108e+01 </wgt>
<wgt id='1729'> +8.2518543e+01 </wgt>
<wgt id='1730'> +8.2510456e+01 </wgt>
<wgt id='1731'> +8.2836369e+01 </wgt>
<wgt id='1732'> +8.2709273e+01 </wgt>
<wgt id='1733'> +8.2408934e+01 </wgt>
<wgt id='1734'> +8.2608932e+01 </wgt>
<wgt id='1735'> +8.2695549e+01 </wgt>
<wgt id='1736'> +7.8737528e+01 </wgt>
<wgt id='1737'> +8.6306172e+01 </wgt>
<wgt id='1738'> +7.8252952e+01 </wgt>
<wgt id='1739'> +7.8472551e+01 </wgt>
<wgt id='1740'> +7.8034871e+01 </wgt>
<wgt id='1741'> +7.8215204e+01 </wgt>
<wgt id='1742'> +7.8290417e+01 </wgt>
<wgt id='1743'> +7.8318522e+01 </wgt>
<wgt id='1744'> +7.8187156e+01 </wgt>
<wgt id='1745'> +7.7905479e+01 </wgt>
<wgt id='1746'> +7.8587821e+01 </wgt>
<wgt id='1747'> +7.8394878e+01 </wgt>
<wgt id='1748'> +7.8078450e+01 </wgt>
<wgt id='1749'> +7.8546152e+01 </wgt>
<wgt id='1750'> +7.7909607e+01 </wgt>
<wgt id='1751'> +7.8301075e+01 </wgt>
<wgt id='1752'> +7.8199422e+01 </wgt>
<wgt id='1753'> +7.8562459e+01 </wgt>
<wgt id='1754'> +7.8056453e+01 </wgt>
<wgt id='1755'> +7.8383697e+01 </wgt>
<wgt id='1756'> +7.7977678e+01 </wgt>
<wgt id='1757'> +7.7238657e+01 </wgt>
<wgt id='1758'> +7.9247232e+01 </wgt>
<wgt id='1759'> +7.7147325e+01 </wgt>
<wgt id='1760'> +7.9248584e+01 </wgt>
<wgt id='1761'> +7.7911346e+01 </wgt>
<wgt id='1762'> +7.8229877e+01 </wgt>
<wgt id='1763'> +7.8762518e+01 </wgt>
<wgt id='1764'> +7.7802193e+01 </wgt>
<wgt id='1765'> +7.8400642e+01 </wgt>
<wgt id='1766'> +7.8127429e+01 </wgt>
<wgt id='1767'> +7.8252952e+01 </wgt>
<wgt id='1768'> +8.1622840e+01 </wgt>
<wgt id='1769'> +7.4531642e+01 </wgt>
<wgt id='1770'> +8.6087176e+01 </wgt>
<wgt id='1771'> +8.2311750e+01 </wgt>
<wgt id='1772'> +7.8782929e+01 </wgt>
<wgt id='1773'> +7.8292357e+01 </wgt>
<wgt id='1774'> +7.8232563e+01 </wgt>
<wgt id='1775'> +7.8254213e+01 </wgt>
<wgt id='1776'> +7.7532165e+01 </wgt>
<wgt id='1777'> +7.8926249e+01 </wgt>
<wgt id='1778'> +7.7783090e+01 </wgt>
<wgt id='1779'> +7.9303775e+01 </wgt>
<wgt id='1780'> +7.6890401e+01 </wgt>
<wgt id='1781'> +8.5471916e+01 </wgt>
<wgt id='1782'> +8.5697296e+01 </wgt>
<wgt id='1783'> +8.5230214e+01 </wgt>
<wgt id='1784'> +8.5392376e+01 </wgt>
<wgt id='1785'> +8.5533695e+01 </wgt>
<wgt id='1786'> +8.5506772e+01 </wgt>
<wgt id='1787'> +8.5419457e+01 </wgt>
<wgt id='1788'> +8.5020100e+01 </wgt>
<wgt id='1789'> +8.5884536e+01 </wgt>
<wgt id='1790'> +8.5785304e+01 </wgt>
<wgt id='1791'> +8.5129891e+01 </wgt>
<wgt id='1792'> +8.5506131e+01 </wgt>
<wgt id='1793'> +8.5390241e+01 </wgt>
<wgt id='1794'> +8.5330678e+01 </wgt>
<wgt id='1795'> +8.5600394e+01 </wgt>
<wgt id='1796'> +8.5505533e+01 </wgt>
<wgt id='1797'> +8.5599070e+01 </wgt>
<wgt id='1798'> +8.5132958e+01 </wgt>
<wgt id='1799'> +8.5768312e+01 </wgt>
<wgt id='1800'> +8.4577932e+01 </wgt>
<wgt id='1801'> +8.6267137e+01 </wgt>
<wgt id='1802'> +8.5596293e+01 </wgt>
<wgt id='1803'> +8.5222096e+01 </wgt>
<wgt id='1804'> +8.6269510e+01 </wgt>
<wgt id='1805'> +8.4681193e+01 </wgt>
<wgt id='1806'> +8.6447939e+01 </wgt>
<wgt id='1807'> +8.4446639e+01 </wgt>
<wgt id='1808'> +8.6264736e+01 </wgt>
<wgt id='1809'> +8.4761725e+01 </wgt>
<wgt id='1810'> +8.5332302e+01 </wgt>
<wgt id='1811'> +8.9082963e+01 </wgt>
<wgt id='1812'> +8.0570664e+01 </wgt>
<wgt id='1813'> +9.3400705e+01 </wgt>
<wgt id='1814'> +8.8528664e+01 </wgt>
<wgt id='1815'> +8.8161008e+01 </wgt>
<wgt id='1816'> +8.4205557e+01 </wgt>
<wgt id='1817'> +8.5245396e+01 </wgt>
<wgt id='1818'> +8.5132544e+01 </wgt>
<wgt id='1819'> +8.4311117e+01 </wgt>
<wgt id='1820'> +8.8384978e+01 </wgt>
<wgt id='1821'> +8.4978138e+01 </wgt>
<wgt id='1822'> +8.5308574e+01 </wgt>
<wgt id='1823'> +8.3308313e+01 </wgt>
<wgt id='1824'> +7.4060157e+01 </wgt>
<wgt id='1825'> +7.4027955e+01 </wgt>
<wgt id='1826'> +7.3995490e+01 </wgt>
<wgt id='1827'> +7.3962698e+01 </wgt>
<wgt id='1828'> +7.3930717e+01 </wgt>
<wgt id='1829'> +7.3898281e+01 </wgt>
<wgt id='1830'> +7.3865820e+01 </wgt>
<wgt id='1831'> +7.3833231e+01 </wgt>
<wgt id='1832'> +7.3801083e+01 </wgt>
<wgt id='1833'> +7.3768833e+01 </wgt>
<wgt id='1834'> +7.3736082e+01 </wgt>
<wgt id='1835'> +7.3703746e+01 </wgt>
<wgt id='1836'> +7.3671550e+01 </wgt>
<wgt id='1837'> +7.3638954e+01 </wgt>
<wgt id='1838'> +7.3606620e+01 </wgt>
<wgt id='1839'> +7.3574463e+01 </wgt>
<wgt id='1840'> +7.3541969e+01 </wgt>
<wgt id='1841'> +7.3509578e+01 </wgt>
<wgt id='1842'> +7.3477448e+01 </wgt>
<wgt id='1843'> +7.3445114e+01 </wgt>
<wgt id='1844'> +7.3412620e+01 </wgt>
<wgt id='1845'> +7.3380242e+01 </wgt>
<wgt id='1846'> +7.3348235e+01 </wgt>
<wgt id='1847'> +7.3316006e+01 </wgt>
<wgt id='1848'> +7.3283411e+01 </wgt>
<wgt id='1849'> +7.3251296e+01 </wgt>
<wgt id='1850'> +7.3218946e+01 </wgt>
<wgt id='1851'> +7.3186644e+01 </wgt>
<wgt id='1852'> +7.3154533e+01 </wgt>
<wgt id='1853'> +7.3122286e+01 </wgt>
<wgt id='1854'> +7.3089814e+01 </wgt>
<wgt id='1855'> +8.2492570e+01 </wgt>
<wgt id='1856'> +8.2892966e+01 </wgt>
<wgt id='1857'> +8.2536472e+01 </wgt>
<wgt id='1858'> +8.2421318e+01 </wgt>
<wgt id='1859'> +8.2882480e+01 </wgt>
<wgt id='1860'> +8.3666455e+01 </wgt>
<wgt id='1861'> +8.3004748e+01 </wgt>
<wgt id='1862'> +8.2428004e+01 </wgt>
<wgt id='1863'> +8.2279930e+01 </wgt>
<wgt id='1864'> +8.1648981e+01 </wgt>
<wgt id='1865'> +8.2695466e+01 </wgt>
<wgt id='1866'> +8.3389266e+01 </wgt>
<wgt id='1867'> +8.2857984e+01 </wgt>
<wgt id='1868'> +8.2876719e+01 </wgt>
<wgt id='1869'> +8.1687650e+01 </wgt>
<wgt id='1870'> +8.5441392e+01 </wgt>
<wgt id='1871'> +8.1869931e+01 </wgt>
<wgt id='1872'> +8.2585867e+01 </wgt>
<wgt id='1873'> +8.2760426e+01 </wgt>
<wgt id='1874'> +8.1600038e+01 </wgt>
<wgt id='1875'> +8.2618315e+01 </wgt>
<wgt id='1876'> +8.2539722e+01 </wgt>
<wgt id='1877'> +8.1376948e+01 </wgt>
<wgt id='1878'> +8.2653604e+01 </wgt>
<wgt id='1879'> +8.2105539e+01 </wgt>
<wgt id='1880'> +8.2178798e+01 </wgt>
<wgt id='1881'> +8.2126219e+01 </wgt>
<wgt id='1882'> +8.2665436e+01 </wgt>
<wgt id='1883'> +8.2443378e+01 </wgt>
<wgt id='1884'> +8.2108253e+01 </wgt>
<wgt id='1885'> +8.2612685e+01 </wgt>
<wgt id='1886'> +8.2413974e+01 </wgt>
<wgt id='1887'> +8.2921190e+01 </wgt>
<wgt id='1888'> +8.2901867e+01 </wgt>
<wgt id='1889'> +8.2521703e+01 </wgt>
<wgt id='1890'> +8.2742905e+01 </wgt>
<wgt id='1891'> +8.1954347e+01 </wgt>
<wgt id='1892'> +8.2794250e+01 </wgt>
<wgt id='1893'> +8.2692076e+01 </wgt>
<wgt id='1894'> +8.2206543e+01 </wgt>
<wgt id='1895'> +8.2420932e+01 </wgt>
<wgt id='1896'> +8.2112827e+01 </wgt>
<wgt id='1897'> +8.2368319e+01 </wgt>
<wgt id='1898'> +8.2697169e+01 </wgt>
<wgt id='1899'> +8.2893618e+01 </wgt>
<wgt id='1900'> +8.2416478e+01 </wgt>
<wgt id='1901'> +8.2607420e+01 </wgt>
<wgt id='1902'> +8.2381681e+01 </wgt>
<wgt id='1903'> +8.2410907e+01 </wgt>
<wgt id='1904'> +8.2468183e+01 </wgt>
<wgt id='1905'> +8.2448166e+01 </wgt>
<wgt id='1906'> +8.2481196e+01 </wgt>
<wgt id='1907'> +8.2522166e+01 </wgt>
<wgt id='1908'> +8.2398393e+01 </wgt>
<wgt id='1909'> +8.2447243e+01 </wgt>
<wgt id='1910'> +8.2357757e+01 </wgt>
<wgt id='1911'> +8.2814145e+01 </wgt>
<wgt id='1912'> +8.2515232e+01 </wgt>
<wgt id='1913'> +8.2534035e+01 </wgt>
<wgt id='1914'> +8.2501931e+01 </wgt>
<wgt id='1915'> +8.2503262e+01 </wgt>
<wgt id='1916'> +8.2531438e+01 </wgt>
<wgt id='1917'> +8.2603879e+01 </wgt>
<wgt id='1918'> +8.2531294e+01 </wgt>
<wgt id='1919'> +8.2489017e+01 </wgt>
<wgt id='1920'> +8.2425006e+01 </wgt>
<wgt id='1921'> +8.2519553e+01 </wgt>
<wgt id='1922'> +8.2564052e+01 </wgt>
<wgt id='1923'> +8.2561560e+01 </wgt>
<wgt id='1924'> +8.2442404e+01 </wgt>
<wgt id='1925'> +8.2484049e+01 </wgt>
<wgt id='1926'> +8.2583404e+01 </wgt>
<wgt id='1927'> +8.2438551e+01 </wgt>
<wgt id='1928'> +8.2511076e+01 </wgt>
<wgt id='1929'> +8.2511934e+01 </wgt>
<wgt id='1930'> +8.2520284e+01 </wgt>
<wgt id='1931'> +8.2493720e+01 </wgt>
<wgt id='1932'> +8.2467941e+01 </wgt>
<wgt id='1933'> +8.2511873e+01 </wgt>
<wgt id='1934'> +8.2478329e+01 </wgt>
<wgt id='1935'> +8.2520495e+01 </wgt>
<wgt id='1936'> +8.2448739e+01 </wgt>
<wgt id='1937'> +8.2522248e+01 </wgt>
<wgt id='1938'> +8.2470348e+01 </wgt>
<wgt id='1939'> +8.2476315e+01 </wgt>
<wgt id='1940'> +8.2464365e+01 </wgt>
<wgt id='1941'> +8.2486164e+01 </wgt>
<wgt id='1942'> +8.2455104e+01 </wgt>
<wgt id='1943'> +8.2473627e+01 </wgt>
<wgt id='1944'> +8.2467918e+01 </wgt>
<wgt id='1945'> +8.2515479e+01 </wgt>
<wgt id='1946'> +8.2472029e+01 </wgt>
<wgt id='1947'> +8.2482387e+01 </wgt>
<wgt id='1948'> +8.2501513e+01 </wgt>
<wgt id='1949'> +8.2498898e+01 </wgt>
<wgt id='1950'> +8.2516113e+01 </wgt>
<wgt id='1951'> +8.2499638e+01 </wgt>
<wgt id='1952'> +8.2495935e+01 </wgt>
<wgt id='1953'> +8.2478452e+01 </wgt>
<wgt id='1954'> +8.2500368e+01 </wgt>
<wgt id='1955'> +8.2502140e+01 </wgt>
<wgt id='1956'> +8.2492482e+01 </wgt>
<wgt id='1957'> +8.2492999e+01 </wgt>
<wgt id='1958'> +8.2492648e+01 </wgt>
<wgt id='1959'> +8.2492665e+01 </wgt>
<wgt id='1960'> +8.2492812e+01 </wgt>
<wgt id='1961'> +8.2492600e+01 </wgt>
<wgt id='1962'> +8.2493060e+01 </wgt>
</rwgt>
</event>
<event npLO=" -1 " npNLO=" 1 ">
 7      1 -1.5146096e+02 1.87372610e+01 7.54677110e-03 1.55244890e-01
       -3 -1    0    0    0  501 +0.0000000000e+00 +0.0000000000e+00 +4.5838487000e+01 4.5838487000e+01 0.0000000000e+00 0.0000e+00 9.0000e+00
       21 -1    0    0  501  502 +0.0000000000e+00 +0.0000000000e+00 -7.0832237000e+01 7.0832237000e+01 0.0000000000e+00 0.0000e+00 9.0000e+00
       23  2    1    2    0    0 -8.6425045000e+00 +1.6625043000e+01 -1.4899838000e+01 9.5387584000e+01 9.2334723000e+01 0.0000e+00 0.0000e+00
       15  1    3    3    0    0 -1.7140056000e+01 +1.2851486000e+00 -2.0946178000e+01 2.7153881000e+01 1.7770000000e+00 0.0000e+00 9.0000e+00
      -15  1    3    3    0    0 +2.7333125000e+01 +1.4599228000e+01 +2.6214758000e+01 4.0627681000e+01 1.7770000000e+00 0.0000e+00 9.0000e+00
       22  1    3    3    0    0 -1.8835574000e+01 +7.4066664000e-01 -2.0168417000e+01 2.7606023000e+01 0.0000000000e+00 0.0000e+00 9.0000e+00
       -3  1    1    2    0  502 +8.6425045000e+00 -1.6625043000e+01 -1.0093912000e+01 2.1283139000e+01 0.0000000000e+00 0.0000e+00 9.0000e+00
#aMCatNLO 1  0  0  2  6 0.10167277E+02 0.00000000E+00 -9  7  0 0.00000000E+00 0.00000000E+00 0.00000000E+00 0.00000000E+00 0.00000000E+00
<rwgt>
<wgt id='1001'> -1.5146000e+02 </wgt>
<wgt id='1002'> -1.5146000e+02 </wgt>
<wgt id='1003'> -1.3723000e+02 </wgt>
<wgt id='1004'> -1.3770000e+02 </wgt>
<wgt id='1005'> -1.2825000e+02 </wgt>
<wgt id='1006'> -1.4240000e+02 </wgt>
<wgt id='1007'> -1.3258000e+02 </wgt>
<wgt id='1008'> -1.5857000e+02 </wgt>
<wgt id='1009'> -1.4782000e+02 </wgt>
<wgt id='1010'> -1.5111000e+02 </wgt>
<wgt id='1011'> -1.5557000e+02 </wgt>
<wgt id='1012'> -1.8308000e+02 </wgt>
<wgt id='1013'> -1.6347000e+02 </wgt>
<wgt id='1014'> -1.4876000e+02 </wgt>
<wgt id='1015'> -1.3909000e+02 </wgt>
<wgt id='1016'> -1.5628000e+02 </wgt>
<wgt id='1017'> -1.5857000e+02 </wgt>
<wgt id='1018'> -1.5458000e+02 </wgt>
<wgt id='1019'> -1.6132000e+02 </wgt>
<wgt id='1020'> -1.5653000e+02 </wgt>
<wgt id='1021'> -1.4996000e+02 </wgt>
<wgt id='1022'> -1.3695000e+02 </wgt>
<wgt id='1023'> -1.3890000e+02 </wgt>
<wgt id='1024'> -1.5468000e+02 </wgt>
<wgt id='1025'> -1.5686000e+02 </wgt>
<wgt id='1026'> -1.3629000e+02 </wgt>
<wgt id='1027'> -1.4147000e+02 </wgt>
<wgt id='1028'> -1.6954000e+02 </wgt>
<wgt id='1029'> -1.4123000e+02 </wgt>
<wgt id='1030'> -1.5114000e+02 </wgt>
<wgt id='1031'> -1.3907000e+02 </wgt>
<wgt id='1032'> -1.4289000e+02 </wgt>
<wgt id='1033'> -1.3403000e+02 </wgt>
<wgt id='1034'> -1.8802000e+02 </wgt>
<wgt id='1035'> -1.5361000e+02 </wgt>
<wgt id='1036'> -1.5877000e+02 </wgt>
<wgt id='1037'> -1.4145000e+02 </wgt>
<wgt id='1038'> -1.4061000e+02 </wgt>
<wgt id='1039'> -1.4752000e+02 </wgt>
<wgt id='1040'> -1.7273000e+02 </wgt>
<wgt id='1041'> -1.4634000e+02 </wgt>
<wgt id='1042'> -1.4435000e+02 </wgt>
<wgt id='1043'> -1.4564000e+02 </wgt>
<wgt id='1044'> -1.4735000e+02 </wgt>
<wgt id='1045'> -1.5213000e+02 </wgt>
<wgt id='1046'> -1.5875000e+02 </wgt>
<wgt id='1047'> -1.5464000e+02 </wgt>
<wgt id='1048'> -1.4740000e+02 </wgt>
<wgt id='1049'> -1.6207000e+02 </wgt>
<wgt id='1050'> -1.5364000e+02 </wgt>
<wgt id='1051'> -1.4087000e+02 </wgt>
<wgt id='1052'> -1.3831000e+02 </wgt>
<wgt id='1053'> -1.5091000e+02 </wgt>
<wgt id='1054'> -1.4855000e+02 </wgt>
<wgt id='1055'> -1.8674000e+02 </wgt>
<wgt id='1056'> -1.5428000e+02 </wgt>
<wgt id='1057'> -1.5225000e+02 </wgt>
<wgt id='1058'> -1.5067000e+02 </wgt>
<wgt id='1059'> -1.3336000e+02 </wgt>
<wgt id='1060'> -1.4153000e+02 </wgt>
<wgt id='1061'> -1.4297000e+02 </wgt>
<wgt id='1062'> -1.4935000e+02 </wgt>
<wgt id='1063'> -1.5035000e+02 </wgt>
<wgt id='1064'> -1.4246000e+02 </wgt>
<wgt id='1065'> -1.5011000e+02 </wgt>
<wgt id='1066'> -1.6258000e+02 </wgt>
<wgt id='1067'> -1.4841000e+02 </wgt>
<wgt id='1068'> -1.4732000e+02 </wgt>
<wgt id='1069'> -2.0032000e+02 </wgt>
<wgt id='1070'> -1.4794000e+02 </wgt>
<wgt id='1071'> -1.6198000e+02 </wgt>
<wgt id='1072'> -1.4881000e+02 </wgt>
<wgt id='1073'> -1.6183000e+02 </wgt>
<wgt id='1074'> -1.8357000e+02 </wgt>
<wgt id='1075'> -1.8291000e+02 </wgt>
<wgt id='1076'> -1.5165000e+02 </wgt>
<wgt id='1077'> -1.4135000e+02 </wgt>
<wgt id='1078'> -1.7503000e+02 </wgt>
<wgt id='1079'> -1.5895000e+02 </wgt>
<wgt id='1080'> -1.5420000e+02 </wgt>
<wgt id='1081'> -1.6217000e+02 </wgt>
<wgt id='1082'> -1.4594000e+02 </wgt>
<wgt id='1083'> -1.5186000e+02 </wgt>
<wgt id='1084'> -1.3986000e+02 </wgt>
<wgt id='1085'> -1.5463000e+02 </wgt>
<wgt id='1086'> -1.4320000e+02 </wgt>
<wgt id='1087'> -1.4478000e+02 </wgt>
<wgt id='1088'> -1.5129000e+02 </wgt>
<wgt id='1089'> -1.5311000e+02 </wgt>
<wgt id='1090'> -1.4262000e+02 </wgt>
<wgt id='1091'> -1.5729000e+02 </wgt>
<wgt id='1092'> -1.4418000e+02 </wgt>
<wgt id='1093'> -1.4145000e+02 </wgt>
<wgt id='1094'> -1.5277000e+02 </wgt>
<wgt id='1095'> -1.5029000e+02 </wgt>
<wgt id='1096'> -1.4991000e+02 </wgt>
<wgt id='1097'> -1.3787000e+02 </wgt>
<wgt id='1098'> -1.6692000e+02 </wgt>
<wgt id='1099'> -1.5064000e+02 </wgt>
<wgt id='1100'> -1.4795000e+02 </wgt>
<wgt id='1101'> -1.4028000e+02 </wgt>
<wgt id='1102'> -1.3415000e+02 </wgt>
<wgt id='1103'> -1.4527000e+02 </wgt>
<wgt id='1104'> -1.5403000e+02 </wgt>
<wgt id='1105'> -1.5146096e+02 </wgt>
<wgt id='1106'> -5.7119994e+01 </wgt>
<wgt id='1107'> -1.0453653e+02 </wgt>
<wgt id='1108'> -8.7298690e+01 </wgt>
<wgt id='1109'> -6.5894757e+01 </wgt>
<wgt id='1110'> -1.2041825e+02 </wgt>
<wgt id='1111'> -6.3622490e+01 </wgt>
<wgt id='1112'> -4.7954866e+01 </wgt>
<wgt id='1113'> -8.7880268e+01 </wgt>
<wgt id='1114'> -8.3701404e+01 </wgt>
<wgt id='1115'> -7.0449741e+01 </wgt>
<wgt id='1116'> -8.5033139e+01 </wgt>
<wgt id='1117'> -8.9414849e+01 </wgt>
<wgt id='1118'> -8.5156838e+01 </wgt>
<wgt id='1119'> -8.2132170e+01 </wgt>
<wgt id='1120'> -7.3032738e+01 </wgt>
<wgt id='1121'> -8.0419543e+01 </wgt>
<wgt id='1122'> -9.0774219e+01 </wgt>
<wgt id='1123'> -8.4760185e+01 </wgt>
<wgt id='1124'> -8.0849915e+01 </wgt>
<wgt id='1125'> -8.3237502e+01 </wgt>
<wgt id='1126'> -8.9899248e+01 </wgt>
<wgt id='1127'> -8.7055035e+01 </wgt>
<wgt id='1128'> -8.4229466e+01 </wgt>
<wgt id='1129'> -8.2570562e+01 </wgt>
<wgt id='1130'> -8.2793401e+01 </wgt>
<wgt id='1131'> -7.6101651e+01 </wgt>
<wgt id='1132'> -8.7993818e+01 </wgt>
<wgt id='1133'> -8.5413840e+01 </wgt>
<wgt id='1134'> -9.0906446e+01 </wgt>
<wgt id='1135'> -8.4301163e+01 </wgt>
<wgt id='1136'> -8.4614181e+01 </wgt>
<wgt id='1137'> -7.9414891e+01 </wgt>
<wgt id='1138'> -9.1340219e+01 </wgt>
<wgt id='1139'> -8.8937356e+01 </wgt>
<wgt id='1140'> -8.0778771e+01 </wgt>
<wgt id='1141'> -7.9644961e+01 </wgt>
<wgt id='1142'> -8.8189605e+01 </wgt>
<wgt id='1143'> -8.3058137e+01 </wgt>
<wgt id='1144'> -7.6961571e+01 </wgt>
<wgt id='1145'> -7.8142673e+01 </wgt>
<wgt id='1146'> -8.7001673e+01 </wgt>
<wgt id='1147'> -8.1495659e+01 </wgt>
<wgt id='1148'> -9.2214529e+01 </wgt>
<wgt id='1149'> -8.2367690e+01 </wgt>
<wgt id='1150'> -8.4524777e+01 </wgt>
<wgt id='1151'> -8.7140092e+01 </wgt>
<wgt id='1152'> -8.4488864e+01 </wgt>
<wgt id='1153'> -8.0069640e+01 </wgt>
<wgt id='1154'> -8.2853241e+01 </wgt>
<wgt id='1155'> -8.3592000e+01 </wgt>
<wgt id='1156'> -8.2706643e+01 </wgt>
<wgt id='1157'> -8.1184684e+01 </wgt>
<wgt id='1158'> -7.7106353e+01 </wgt>
<wgt id='1159'> -8.5852377e+01 </wgt>
<wgt id='1160'> -8.2133014e+01 </wgt>
<wgt id='1161'> -8.6710118e+01 </wgt>
<wgt id='1162'> -8.6464024e+01 </wgt>
<wgt id='1163'> -8.0304138e+01 </wgt>
<wgt id='1164'> -8.0299646e+01 </wgt>
<wgt id='1165'> -8.6107868e+01 </wgt>
<wgt id='1166'> -8.2727179e+01 </wgt>
<wgt id='1167'> -8.4411278e+01 </wgt>
<wgt id='1168'> -8.0471016e+01 </wgt>
<wgt id='1169'> -8.6669346e+01 </wgt>
<wgt id='1170'> -8.6514686e+01 </wgt>
<wgt id='1171'> -8.4768534e+01 </wgt>
<wgt id='1172'> -8.7126839e+01 </wgt>
<wgt id='1173'> -8.0551990e+01 </wgt>
<wgt id='1174'> -7.9199350e+01 </wgt>
<wgt id='1175'> -7.7800112e+01 </wgt>
<wgt id='1176'> -8.3880274e+01 </wgt>
<wgt id='1177'> -8.3697357e+01 </wgt>
<wgt id='1178'> -9.0380364e+01 </wgt>
<wgt id='1179'> -8.1017557e+01 </wgt>
<wgt id='1180'> -8.3435347e+01 </wgt>
<wgt id='1181'> -8.0016654e+01 </wgt>
<wgt id='1182'> -7.7415880e+01 </wgt>
<wgt id='1183'> -8.4784003e+01 </wgt>
<wgt id='1184'> -8.2931870e+01 </wgt>
<wgt id='1185'> -8.0246849e+01 </wgt>
<wgt id='1186'> -7.9244059e+01 </wgt>
<wgt id='1187'> -8.8251300e+01 </wgt>
<wgt id='1188'> -8.8657892e+01 </wgt>
<wgt id='1189'> -8.6403814e+01 </wgt>
<wgt id='1190'> -7.8472230e+01 </wgt>
<wgt id='1191'> -8.3219102e+01 </wgt>
<wgt id='1192'> -8.3990816e+01 </wgt>
<wgt id='1193'> -8.6524533e+01 </wgt>
<wgt id='1194'> -7.9615499e+01 </wgt>
<wgt id='1195'> -8.6442205e+01 </wgt>
<wgt id='1196'> -8.2793401e+01 </wgt>
<wgt id='1197'> -8.3142208e+01 </wgt>
<wgt id='1198'> -8.9181561e+01 </wgt>
<wgt id='1199'> -8.6876360e+01 </wgt>
<wgt id='1200'> -8.2104486e+01 </wgt>
<wgt id='1201'> -9.4018154e+01 </wgt>
<wgt id='1202'> -7.6272878e+01 </wgt>
<wgt id='1203'> -8.6003533e+01 </wgt>
<wgt id='1204'> -8.6158025e+01 </wgt>
<wgt id='1205'> -8.9454086e+01 </wgt>
<wgt id='1206'> -9.0662026e+01 </wgt>
<wgt id='1207'> -8.3487406e+01 </wgt>
<wgt id='1208'> -7.6210006e+01 </wgt>
<wgt id='1209'> -8.8358538e+01 </wgt>
<wgt id='1210'> -8.6467460e+01 </wgt>
<wgt id='1211'> -7.5978046e+01 </wgt>
<wgt id='1212'> -8.1436557e+01 </wgt>
<wgt id='1213'> -8.6089457e+01 </wgt>
<wgt id='1214'> -8.3423522e+01 </wgt>
<wgt id='1215'> -7.7489297e+01 </wgt>
<wgt id='1216'> -8.1090368e+01 </wgt>
<wgt id='1217'> -8.1405444e+01 </wgt>
<wgt id='1218'> -8.0805195e+01 </wgt>
<wgt id='1219'> -8.0883310e+01 </wgt>
<wgt id='1220'> -7.9936233e+01 </wgt>
<wgt id='1221'> -8.0624808e+01 </wgt>
<wgt id='1222'> -8.1736050e+01 </wgt>
<wgt id='1223'> -8.0701485e+01 </wgt>
<wgt id='1224'> -8.1641362e+01 </wgt>
<wgt id='1225'> -8.0929468e+01 </wgt>
<wgt id='1226'> -8.3237899e+01 </wgt>
<wgt id='1227'> -8.1434572e+01 </wgt>
<wgt id='1228'> -8.0058417e+01 </wgt>
<wgt id='1229'> -8.1102327e+01 </wgt>
<wgt id='1230'> -7.9771394e+01 </wgt>
<wgt id='1231'> -8.2781539e+01 </wgt>
<wgt id='1232'> -7.9379907e+01 </wgt>
<wgt id='1233'> -8.1476472e+01 </wgt>
<wgt id='1234'> -8.0351664e+01 </wgt>
<wgt id='1235'> -8.1649730e+01 </wgt>
<wgt id='1236'> -8.2303367e+01 </wgt>
<wgt id='1237'> -7.9416262e+01 </wgt>
<wgt id='1238'> -8.0759323e+01 </wgt>
<wgt id='1239'> -8.1079680e+01 </wgt>
<wgt id='1240'> -8.0682021e+01 </wgt>
<wgt id='1241'> -8.1660782e+01 </wgt>
<wgt id='1242'> -8.1169730e+01 </wgt>
<wgt id='1243'> -8.1613387e+01 </wgt>
<wgt id='1244'> -8.1055886e+01 </wgt>
<wgt id='1245'> -8.1245648e+01 </wgt>
<wgt id='1246'> -8.0939603e+01 </wgt>
<wgt id='1247'> -8.1167874e+01 </wgt>
<wgt id='1248'> -8.1044214e+01 </wgt>
<wgt id='1249'> -8.0962698e+01 </wgt>
<wgt id='1250'> -8.1377032e+01 </wgt>
<wgt id='1251'> -8.0955324e+01 </wgt>
<wgt id='1252'> -8.0705241e+01 </wgt>
<wgt id='1253'> -8.0596353e+01 </wgt>
<wgt id='1254'> -8.0948981e+01 </wgt>
<wgt id='1255'> -8.0767200e+01 </wgt>
<wgt id='1256'> -8.0724715e+01 </wgt>
<wgt id='1257'> -8.1120348e+01 </wgt>
<wgt id='1258'> -8.0902958e+01 </wgt>
<wgt id='1259'> -8.0828668e+01 </wgt>
<wgt id='1260'> -8.0997729e+01 </wgt>
<wgt id='1261'> -8.1057421e+01 </wgt>
<wgt id='1262'> -8.1001676e+01 </wgt>
<wgt id='1263'> -8.1059680e+01 </wgt>
<wgt id='1264'> -8.1238526e+01 </wgt>
<wgt id='1265'> -8.1135541e+01 </wgt>
<wgt id='1266'> -8.1059411e+01 </wgt>
<wgt id='1267'> -8.1143001e+01 </wgt>
<wgt id='1268'> -8.0924085e+01 </wgt>
<wgt id='1269'> -8.0954330e+01 </wgt>
<wgt id='1270'> -8.1071233e+01 </wgt>
<wgt id='1271'> -8.1151269e+01 </wgt>
<wgt id='1272'> -8.1180133e+01 </wgt>
<wgt id='1273'> -8.1080126e+01 </wgt>
<wgt id='1274'> -8.1077952e+01 </wgt>
<wgt id='1275'> -8.1089082e+01 </wgt>
<wgt id='1276'> -8.1057282e+01 </wgt>
<wgt id='1277'> -8.1133919e+01 </wgt>
<wgt id='1278'> -8.1132469e+01 </wgt>
<wgt id='1279'> -8.1065443e+01 </wgt>
<wgt id='1280'> -8.1062354e+01 </wgt>
<wgt id='1281'> -8.1222003e+01 </wgt>
<wgt id='1282'> -8.1078114e+01 </wgt>
<wgt id='1283'> -8.0945667e+01 </wgt>
<wgt id='1284'> -8.0988876e+01 </wgt>
<wgt id='1285'> -8.1106706e+01 </wgt>
<wgt id='1286'> -8.1054699e+01 </wgt>
<wgt id='1287'> -8.1098786e+01 </wgt>
<wgt id='1288'> -8.1095205e+01 </wgt>
<wgt id='1289'> -8.1119167e+01 </wgt>
<wgt id='1290'> -8.1157602e+01 </wgt>
<wgt id='1291'> -8.1095842e+01 </wgt>
<wgt id='1292'> -8.1091771e+01 </wgt>
<wgt id='1293'> -8.1081328e+01 </wgt>
<wgt id='1294'> -8.1022794e+01 </wgt>
<wgt id='1295'> -8.1081575e+01 </wgt>
<wgt id='1296'> -8.1081065e+01 </wgt>
<wgt id='1297'> -8.1027978e+01 </wgt>
<wgt id='1298'> -8.1086527e+01 </wgt>
<wgt id='1299'> -8.1035470e+01 </wgt>
<wgt id='1300'> -8.1039408e+01 </wgt>
<wgt id='1301'> -8.1187142e+01 </wgt>
<wgt id='1302'> -8.1115870e+01 </wgt>
<wgt id='1303'> -8.1085718e+01 </wgt>
<wgt id='1304'> -8.1136530e+01 </wgt>
<wgt id='1305'> -8.1101591e+01 </wgt>
<wgt id='1306'> -8.1058618e+01 </wgt>
<wgt id='1307'> -8.1111621e+01 </wgt>
<wgt id='1308'> -8.1108034e+01 </wgt>
<wgt id='1309'> -8.1076801e+01 </wgt>
<wgt id='1310'> -8.1070826e+01 </wgt>
<wgt id='1311'> -8.1033129e+01 </wgt>
<wgt id='1312'> -8.1061950e+01 </wgt>
<wgt id='1313'> -8.1051583e+01 </wgt>
<wgt id='1314'> -8.1125325e+01 </wgt>
<wgt id='1315'> -8.1125310e+01 </wgt>
<wgt id='1316'> -8.1044377e+01 </wgt>
<wgt id='1317'> -7.6988221e+01 </wgt>
<wgt id='1318'> -8.5357680e+01 </wgt>
<wgt id='1319'> -2.6237042e+01 </wgt>
<wgt id='1320'> -7.6054673e+01 </wgt>
<wgt id='1321'> -7.6331711e+01 </wgt>
<wgt id='1322'> -7.6319257e+01 </wgt>
<wgt id='1323'> -7.7870058e+01 </wgt>
<wgt id='1324'> -7.4674268e+01 </wgt>
<wgt id='1325'> -7.6741985e+01 </wgt>
<wgt id='1326'> -7.5749755e+01 </wgt>
<wgt id='1327'> -7.7642417e+01 </wgt>
<wgt id='1328'> -7.4910817e+01 </wgt>
<wgt id='1329'> -7.4675616e+01 </wgt>
<wgt id='1330'> -7.6887627e+01 </wgt>
<wgt id='1331'> -7.5845343e+01 </wgt>
<wgt id='1332'> -7.6377323e+01 </wgt>
<wgt id='1333'> -7.5088278e+01 </wgt>
<wgt id='1334'> -7.6132880e+01 </wgt>
<wgt id='1335'> -6.9466106e+01 </wgt>
<wgt id='1336'> -8.3182221e+01 </wgt>
<wgt id='1337'> -7.4869412e+01 </wgt>
<wgt id='1338'> -7.7416594e+01 </wgt>
<wgt id='1339'> -7.6392954e+01 </wgt>
<wgt id='1340'> -7.5641481e+01 </wgt>
<wgt id='1341'> -7.5525203e+01 </wgt>
<wgt id='1342'> -7.6987021e+01 </wgt>
<wgt id='1343'> -7.5804910e+01 </wgt>
<wgt id='1344'> -7.6224751e+01 </wgt>
<wgt id='1345'> -7.5855424e+01 </wgt>
<wgt id='1346'> -7.6214065e+01 </wgt>
<wgt id='1347'> -7.6073518e+01 </wgt>
<wgt id='1348'> -7.5975385e+01 </wgt>
<wgt id='1349'> -7.5842460e+01 </wgt>
<wgt id='1350'> -7.6124890e+01 </wgt>
<wgt id='1351'> -7.6254559e+01 </wgt>
<wgt id='1352'> -7.5775830e+01 </wgt>
<wgt id='1353'> -7.5884485e+01 </wgt>
<wgt id='1354'> -7.6369072e+01 </wgt>
<wgt id='1355'> -7.6835719e+01 </wgt>
<wgt id='1356'> -7.5329652e+01 </wgt>
<wgt id='1357'> -7.6282409e+01 </wgt>
<wgt id='1358'> -7.5232963e+01 </wgt>
<wgt id='1359'> -7.6024863e+01 </wgt>
<wgt id='1360'> -7.4911654e+01 </wgt>
<wgt id='1361'> -7.6237100e+01 </wgt>
<wgt id='1362'> -7.6050790e+01 </wgt>
<wgt id='1363'> -7.6287192e+01 </wgt>
<wgt id='1364'> -7.5842977e+01 </wgt>
<wgt id='1365'> -7.3910734e+01 </wgt>
<wgt id='1366'> -7.6569103e+01 </wgt>
<wgt id='1367'> -7.4907458e+01 </wgt>
<wgt id='1368'> -7.5963902e+01 </wgt>
<wgt id='1369'> -7.6148183e+01 </wgt>
<wgt id='1370'> -7.3699953e+01 </wgt>
<wgt id='1371'> -7.5521526e+01 </wgt>
<wgt id='1372'> -7.5466487e+01 </wgt>
<wgt id='1373'> -7.3767915e+01 </wgt>
<wgt id='1374'> -7.6540756e+01 </wgt>
<wgt id='1375'> -8.0503066e+01 </wgt>
<wgt id='1376'> -6.9692344e+01 </wgt>
<wgt id='1377'> -7.1917197e+01 </wgt>
<wgt id='1378'> -8.0122788e+01 </wgt>
<wgt id='1379'> -7.8073553e+01 </wgt>
<wgt id='1380'> -7.3766482e+01 </wgt>
<wgt id='1381'> -8.2141949e+01 </wgt>
<wgt id='1382'> -5.9071181e+01 </wgt>
<wgt id='1383'> -7.7822479e+01 </wgt>
<wgt id='1384'> -8.1005821e+01 </wgt>
<wgt id='1385'> -9.4106207e+01 </wgt>
<wgt id='1386'> -9.4297064e+01 </wgt>
<wgt id='1387'> -9.3893700e+01 </wgt>
<wgt id='1388'> -9.3662716e+01 </wgt>
<wgt id='1389'> -9.4865051e+01 </wgt>
<wgt id='1390'> -9.4083631e+01 </wgt>
<wgt id='1391'> -9.4133972e+01 </wgt>
<wgt id='1392'> -9.4049338e+01 </wgt>
<wgt id='1393'> -9.4144388e+01 </wgt>
<wgt id='1394'> -9.3825375e+01 </wgt>
<wgt id='1395'> -9.4454725e+01 </wgt>
<wgt id='1396'> -9.3339358e+01 </wgt>
<wgt id='1397'> -9.4503607e+01 </wgt>
<wgt id='1398'> -9.4017147e+01 </wgt>
<wgt id='1399'> -9.4164791e+01 </wgt>
<wgt id='1400'> -9.4082338e+01 </wgt>
<wgt id='1401'> -9.4114750e+01 </wgt>
<wgt id='1402'> -9.3574998e+01 </wgt>
<wgt id='1403'> -9.4349485e+01 </wgt>
<wgt id='1404'> -9.5351745e+01 </wgt>
<wgt id='1405'> -9.3496375e+01 </wgt>
<wgt id='1406'> -9.5929586e+01 </wgt>
<wgt id='1407'> -9.0844345e+01 </wgt>
<wgt id='1408'> -9.6143428e+01 </wgt>
<wgt id='1409'> -9.0015778e+01 </wgt>
<wgt id='1410'> -9.4448358e+01 </wgt>
<wgt id='1411'> -9.3204941e+01 </wgt>
<wgt id='1412'> -9.3274464e+01 </wgt>
<wgt id='1413'> -9.5146479e+01 </wgt>
<wgt id='1414'> -9.4080785e+01 </wgt>
<wgt id='1415'> -9.4154330e+01 </wgt>
<wgt id='1416'> -9.4364513e+01 </wgt>
<wgt id='1417'> -9.3950243e+01 </wgt>
<wgt id='1418'> -9.4274619e+01 </wgt>
<wgt id='1419'> -9.3727332e+01 </wgt>
<wgt id='1420'> -9.3834781e+01 </wgt>
<wgt id='1421'> -9.3956649e+01 </wgt>
<wgt id='1422'> -9.3175217e+01 </wgt>
<wgt id='1423'> -9.5074018e+01 </wgt>
<wgt id='1424'> -9.4289243e+01 </wgt>
<wgt id='1425'> -9.3624853e+01 </wgt>
<wgt id='1426'> -9.2545799e+01 </wgt>
<wgt id='1427'> -9.3362198e+01 </wgt>
<wgt id='1428'> -9.2987550e+01 </wgt>
<wgt id='1429'> -9.4948513e+01 </wgt>
<wgt id='1430'> -9.3183537e+01 </wgt>
<wgt id='1431'> -9.2234125e+01 </wgt>
<wgt id='1432'> -9.3338767e+01 </wgt>
<wgt id='1433'> -9.1668420e+01 </wgt>
<wgt id='1434'> -9.3621044e+01 </wgt>
<wgt id='1435'> -9.4250848e+01 </wgt>
<wgt id='1436'> -6.6492226e+01 </wgt>
<wgt id='1437'> -6.6486136e+01 </wgt>
<wgt id='1438'> -6.6503891e+01 </wgt>
<wgt id='1439'> -6.6493643e+01 </wgt>
<wgt id='1440'> -6.6444182e+01 </wgt>
<wgt id='1441'> -6.6071104e+01 </wgt>
<wgt id='1442'> -6.5854809e+01 </wgt>
<wgt id='1443'> -6.6465513e+01 </wgt>
<wgt id='1444'> -6.6067591e+01 </wgt>
<wgt id='1445'> -6.5804662e+01 </wgt>
<wgt id='1446'> -6.6837432e+01 </wgt>
<wgt id='1447'> -6.6444888e+01 </wgt>
<wgt id='1448'> -6.6758828e+01 </wgt>
<wgt id='1449'> -6.6361992e+01 </wgt>
<wgt id='1450'> -6.6944561e+01 </wgt>
<wgt id='1451'> -6.6658444e+01 </wgt>
<wgt id='1452'> -6.6098164e+01 </wgt>
<wgt id='1453'> -6.6586606e+01 </wgt>
<wgt id='1454'> -6.6755049e+01 </wgt>
<wgt id='1455'> -6.6212181e+01 </wgt>
<wgt id='1456'> -6.6614358e+01 </wgt>
<wgt id='1457'> -6.6066856e+01 </wgt>
<wgt id='1458'> -6.7570342e+01 </wgt>
<wgt id='1459'> -6.6694948e+01 </wgt>
<wgt id='1460'> -6.6681635e+01 </wgt>
<wgt id='1461'> -6.7048606e+01 </wgt>
<wgt id='1462'> -6.6417041e+01 </wgt>
<wgt id='1463'> -6.6356685e+01 </wgt>
<wgt id='1464'> -6.6505422e+01 </wgt>
<wgt id='1465'> -8.4128664e+01 </wgt>
<wgt id='1466'> -7.6458856e+01 </wgt>
<wgt id='1467'> -7.6435664e+01 </wgt>
<wgt id='1468'> -7.7465190e+01 </wgt>
<wgt id='1469'> -7.2630981e+01 </wgt>
<wgt id='1470'> -7.7488512e+01 </wgt>
<wgt id='1471'> -7.6197516e+01 </wgt>
<wgt id='1472'> -7.7597968e+01 </wgt>
<wgt id='1473'> -7.6427136e+01 </wgt>
<wgt id='1474'> -7.8187458e+01 </wgt>
<wgt id='1475'> -7.6213310e+01 </wgt>
<wgt id='1476'> -7.5734359e+01 </wgt>
<wgt id='1477'> -7.8980771e+01 </wgt>
<wgt id='1478'> -7.5546165e+01 </wgt>
<wgt id='1479'> -7.6014685e+01 </wgt>
<wgt id='1480'> -7.7037165e+01 </wgt>
<wgt id='1481'> -7.5972226e+01 </wgt>
<wgt id='1482'> -7.7929691e+01 </wgt>
<wgt id='1483'> -7.4782396e+01 </wgt>
<wgt id='1484'> -7.5915073e+01 </wgt>
<wgt id='1485'> -7.6464743e+01 </wgt>
<wgt id='1486'> -7.6662777e+01 </wgt>
<wgt id='1487'> -7.6575230e+01 </wgt>
<wgt id='1488'> -7.6756976e+01 </wgt>
<wgt id='1489'> -7.6152733e+01 </wgt>
<wgt id='1490'> -7.6559412e+01 </wgt>
<wgt id='1491'> -7.6900784e+01 </wgt>
<wgt id='1492'> -7.6157278e+01 </wgt>
<wgt id='1493'> -7.6775490e+01 </wgt>
<wgt id='1494'> -7.6358313e+01 </wgt>
<wgt id='1495'> -7.6226012e+01 </wgt>
<wgt id='1496'> -7.6494884e+01 </wgt>
<wgt id='1497'> -7.6435299e+01 </wgt>
<wgt id='1498'> -7.6530343e+01 </wgt>
<wgt id='1499'> -7.6465422e+01 </wgt>
<wgt id='1500'> -7.6696312e+01 </wgt>
<wgt id='1501'> -7.6671129e+01 </wgt>
<wgt id='1502'> -7.6314379e+01 </wgt>
<wgt id='1503'> -7.6526807e+01 </wgt>
<wgt id='1504'> -7.6403326e+01 </wgt>
<wgt id='1505'> -7.6660821e+01 </wgt>
<wgt id='1506'> -7.6639965e+01 </wgt>
<wgt id='1507'> -7.6321039e+01 </wgt>
<wgt id='1508'> -7.6549101e+01 </wgt>
<wgt id='1509'> -7.6312267e+01 </wgt>
<wgt id='1510'> -7.6487952e+01 </wgt>
<wgt id='1511'> -7.6575487e+01 </wgt>
<wgt id='1512'> -7.6423091e+01 </wgt>
<wgt id='1513'> -7.6329724e+01 </wgt>
<wgt id='1514'> -7.6396660e+01 </wgt>
<wgt id='1515'> -7.6443356e+01 </wgt>
<wgt id='1516'> -7.6352495e+01 </wgt>
<wgt id='1517'> -7.6458369e+01 </wgt>
<wgt id='1518'> -7.6395170e+01 </wgt>
<wgt id='1519'> -7.6295638e+01 </wgt>
<wgt id='1520'> -7.6576301e+01 </wgt>
<wgt id='1521'> -7.6639632e+01 </wgt>
<wgt id='1522'> -7.6422476e+01 </wgt>
<wgt id='1523'> -7.6357464e+01 </wgt>
<wgt id='1524'> -7.6535863e+01 </wgt>
<wgt id='1525'> -7.6528652e+01 </wgt>
<wgt id='1526'> -7.6323301e+01 </wgt>
<wgt id='1527'> -7.6417686e+01 </wgt>
<wgt id='1528'> -7.6441134e+01 </wgt>
<wgt id='1529'> -7.6449033e+01 </wgt>
<wgt id='1530'> -7.6452767e+01 </wgt>
<wgt id='1531'> -7.6450876e+01 </wgt>
<wgt id='1532'> -7.6487228e+01 </wgt>
<wgt id='1533'> -7.6516152e+01 </wgt>
<wgt id='1534'> -7.6468210e+01 </wgt>
<wgt id='1535'> -7.6555936e+01 </wgt>
<wgt id='1536'> -7.6448431e+01 </wgt>
<wgt id='1537'> -7.6389079e+01 </wgt>
<wgt id='1538'> -7.6467775e+01 </wgt>
<wgt id='1539'> -7.6462796e+01 </wgt>
<wgt id='1540'> -7.6440366e+01 </wgt>
<wgt id='1541'> -7.6467960e+01 </wgt>
<wgt id='1542'> -7.6468533e+01 </wgt>
<wgt id='1543'> -7.6452141e+01 </wgt>
<wgt id='1544'> -7.6471997e+01 </wgt>
<wgt id='1545'> -7.6491137e+01 </wgt>
<wgt id='1546'> -7.6491606e+01 </wgt>
<wgt id='1547'> -7.6479377e+01 </wgt>
<wgt id='1548'> -7.6429919e+01 </wgt>
<wgt id='1549'> -7.6481406e+01 </wgt>
<wgt id='1550'> -7.6494978e+01 </wgt>
<wgt id='1551'> -7.6456503e+01 </wgt>
<wgt id='1552'> -7.6478007e+01 </wgt>
<wgt id='1553'> -7.6461733e+01 </wgt>
<wgt id='1554'> -7.6459825e+01 </wgt>
<wgt id='1555'> -7.6469000e+01 </wgt>
<wgt id='1556'> -7.6461212e+01 </wgt>
<wgt id='1557'> -7.6434635e+01 </wgt>
<wgt id='1558'> -7.6483648e+01 </wgt>
<wgt id='1559'> -7.6444039e+01 </wgt>
<wgt id='1560'> -7.6463986e+01 </wgt>
<wgt id='1561'> -7.6463482e+01 </wgt>
<wgt id='1562'> -7.6444319e+01 </wgt>
<wgt id='1563'> -7.6473758e+01 </wgt>
<wgt id='1564'> -7.6457112e+01 </wgt>
<wgt id='1565'> -7.6472567e+01 </wgt>
<wgt id='1566'> -7.6469155e+01 </wgt>
<wgt id='1567'> -7.3562643e+01 </wgt>
<wgt id='1568'> -7.9639691e+01 </wgt>
<wgt id='1569'> -7.8900417e+01 </wgt>
<wgt id='1570'> -7.9682866e+01 </wgt>
<wgt id='1571'> -7.9323959e+01 </wgt>
<wgt id='1572'> -7.8013767e+01 </wgt>
<wgt id='1573'> -7.6780637e+01 </wgt>
<wgt id='1574'> -7.6494032e+01 </wgt>
<wgt id='1575'> -7.7084711e+01 </wgt>
<wgt id='1576'> -7.7950512e+01 </wgt>
<wgt id='1577'> -7.9003184e+01 </wgt>
<wgt id='1578'> -7.8399320e+01 </wgt>
<wgt id='1579'> -8.0203811e+01 </wgt>
<wgt id='1580'> -7.5434255e+01 </wgt>
<wgt id='1581'> -7.7823074e+01 </wgt>
<wgt id='1582'> -7.7257518e+01 </wgt>
<wgt id='1583'> -7.8475019e+01 </wgt>
<wgt id='1584'> -7.8938706e+01 </wgt>
<wgt id='1585'> -7.8958383e+01 </wgt>
<wgt id='1586'> -8.0170947e+01 </wgt>
<wgt id='1587'> -7.7270211e+01 </wgt>
<wgt id='1588'> -7.9437638e+01 </wgt>
<wgt id='1589'> -7.9666187e+01 </wgt>
<wgt id='1590'> -7.9143248e+01 </wgt>
<wgt id='1591'> -7.9421083e+01 </wgt>
<wgt id='1592'> -7.9380120e+01 </wgt>
<wgt id='1593'> -7.8584318e+01 </wgt>
<wgt id='1594'> -7.9024835e+01 </wgt>
<wgt id='1595'> -7.8473318e+01 </wgt>
<wgt id='1596'> -7.8988887e+01 </wgt>
<wgt id='1597'> -7.9087348e+01 </wgt>
<wgt id='1598'> -7.8789379e+01 </wgt>
<wgt id='1599'> -7.8923735e+01 </wgt>
<wgt id='1600'> -7.8772009e+01 </wgt>
<wgt id='1601'> -7.9198900e+01 </wgt>
<wgt id='1602'> -7.8754171e+01 </wgt>
<wgt id='1603'> -7.9019725e+01 </wgt>
<wgt id='1604'> -7.9311147e+01 </wgt>
<wgt id='1605'> -7.8910088e+01 </wgt>
<wgt id='1606'> -7.8799969e+01 </wgt>
<wgt id='1607'> -7.8904637e+01 </wgt>
<wgt id='1608'> -7.8956880e+01 </wgt>
<wgt id='1609'> -7.8527455e+01 </wgt>
<wgt id='1610'> -7.8980039e+01 </wgt>
<wgt id='1611'> -7.8799367e+01 </wgt>
<wgt id='1612'> -7.8693373e+01 </wgt>
<wgt id='1613'> -7.8929188e+01 </wgt>
<wgt id='1614'> -7.8975737e+01 </wgt>
<wgt id='1615'> -7.8918106e+01 </wgt>
<wgt id='1616'> -7.8778277e+01 </wgt>
<wgt id='1617'> -7.9038630e+01 </wgt>
<wgt id='1618'> -7.8659528e+01 </wgt>
<wgt id='1619'> -7.8746812e+01 </wgt>
<wgt id='1620'> -7.8812980e+01 </wgt>
<wgt id='1621'> -7.8983032e+01 </wgt>
<wgt id='1622'> -7.8952306e+01 </wgt>
<wgt id='1623'> -7.8822720e+01 </wgt>
<wgt id='1624'> -7.8882503e+01 </wgt>
<wgt id='1625'> -7.8965152e+01 </wgt>
<wgt id='1626'> -7.9003508e+01 </wgt>
<wgt id='1627'> -7.8873221e+01 </wgt>
<wgt id='1628'> -7.8832805e+01 </wgt>
<wgt id='1629'> -7.8924721e+01 </wgt>
<wgt id='1630'> -7.8913775e+01 </wgt>
<wgt id='1631'> -7.8836313e+01 </wgt>
<wgt id='1632'> -7.8905606e+01 </wgt>
<wgt id='1633'> -7.8864795e+01 </wgt>
<wgt id='1634'> -7.8837358e+01 </wgt>
<wgt id='1635'> -7.8937325e+01 </wgt>
<wgt id='1636'> -7.8925654e+01 </wgt>
<wgt id='1637'> -7.8980382e+01 </wgt>
<wgt id='1638'> -7.8938426e+01 </wgt>
<wgt id='1639'> -7.8884451e+01 </wgt>
<wgt id='1640'> -7.8952622e+01 </wgt>
<wgt id='1641'> -7.8930228e+01 </wgt>
<wgt id='1642'> -7.8892608e+01 </wgt>
<wgt id='1643'> -7.8917997e+01 </wgt>
<wgt id='1644'> -7.8888016e+01 </wgt>
<wgt id='1645'> -7.8882303e+01 </wgt>
<wgt id='1646'> -7.8905426e+01 </wgt>
<wgt id='1647'> -7.8918742e+01 </wgt>
<wgt id='1648'> -7.8876587e+01 </wgt>
<wgt id='1649'> -7.8937220e+01 </wgt>
<wgt id='1650'> -7.8864977e+01 </wgt>
<wgt id='1651'> -7.8918712e+01 </wgt>
<wgt id='1652'> -7.8857583e+01 </wgt>
<wgt id='1653'> -7.8871230e+01 </wgt>
<wgt id='1654'> -7.8895783e+01 </wgt>
<wgt id='1655'> -7.8911166e+01 </wgt>
<wgt id='1656'> -7.8858058e+01 </wgt>
<wgt id='1657'> -7.8848721e+01 </wgt>
<wgt id='1658'> -7.8886371e+01 </wgt>
<wgt id='1659'> -7.8933216e+01 </wgt>
<wgt id='1660'> -7.8915146e+01 </wgt>
<wgt id='1661'> -7.8911350e+01 </wgt>
<wgt id='1662'> -7.8880224e+01 </wgt>
<wgt id='1663'> -7.8902219e+01 </wgt>
<wgt id='1664'> -7.8906835e+01 </wgt>
<wgt id='1665'> -7.8908450e+01 </wgt>
<wgt id='1666'> -7.8903182e+01 </wgt>
<wgt id='1667'> -7.8903586e+01 </wgt>
<wgt id='1668'> -7.8901435e+01 </wgt>
<wgt id='1669'> -7.8918120e+01 </wgt>
<wgt id='1670'> -7.5630147e+01 </wgt>
<wgt id='1671'> -8.1570105e+01 </wgt>
<wgt id='1672'> -7.6515799e+01 </wgt>
<wgt id='1673'> -7.5893876e+01 </wgt>
<wgt id='1674'> -7.9754357e+01 </wgt>
<wgt id='1675'> -7.6467425e+01 </wgt>
<wgt id='1676'> -7.6016946e+01 </wgt>
<wgt id='1677'> -7.7029085e+01 </wgt>
<wgt id='1678'> -7.6932192e+01 </wgt>
<wgt id='1679'> -7.6322251e+01 </wgt>
<wgt id='1680'> -7.6770741e+01 </wgt>
<wgt id='1681'> -7.5218337e+01 </wgt>
<wgt id='1682'> -7.6619126e+01 </wgt>
<wgt id='1683'> -7.9803262e+01 </wgt>
<wgt id='1684'> -7.6598348e+01 </wgt>
<wgt id='1685'> -7.6474135e+01 </wgt>
<wgt id='1686'> -7.7733859e+01 </wgt>
<wgt id='1687'> -7.6746708e+01 </wgt>
<wgt id='1688'> -7.6588764e+01 </wgt>
<wgt id='1689'> -7.6596361e+01 </wgt>
<wgt id='1690'> -7.6379550e+01 </wgt>
<wgt id='1691'> -7.6754066e+01 </wgt>
<wgt id='1692'> -7.6090514e+01 </wgt>
<wgt id='1693'> -7.6728248e+01 </wgt>
<wgt id='1694'> -7.6169497e+01 </wgt>
<wgt id='1695'> -7.6254076e+01 </wgt>
<wgt id='1696'> -7.6478530e+01 </wgt>
<wgt id='1697'> -7.6680276e+01 </wgt>
<wgt id='1698'> -7.5719274e+01 </wgt>
<wgt id='1699'> -7.6679595e+01 </wgt>
<wgt id='1700'> -7.6675262e+01 </wgt>
<wgt id='1701'> -7.7481107e+01 </wgt>
<wgt id='1702'> -7.6322520e+01 </wgt>
<wgt id='1703'> -7.3562643e+01 </wgt>
<wgt id='1704'> -7.9639691e+01 </wgt>
<wgt id='1705'> -7.8905838e+01 </wgt>
<wgt id='1706'> -8.0895029e+01 </wgt>
<wgt id='1707'> -7.6923717e+01 </wgt>
<wgt id='1708'> -7.8924384e+01 </wgt>
<wgt id='1709'> -8.2000637e+01 </wgt>
<wgt id='1710'> -7.8093493e+01 </wgt>
<wgt id='1711'> -7.9004424e+01 </wgt>
<wgt id='1712'> -7.8993384e+01 </wgt>
<wgt id='1713'> -7.9508183e+01 </wgt>
<wgt id='1714'> -8.0246258e+01 </wgt>
<wgt id='1715'> -7.9076521e+01 </wgt>
<wgt id='1716'> -7.6961988e+01 </wgt>
<wgt id='1717'> -7.8454219e+01 </wgt>
<wgt id='1718'> -7.8827393e+01 </wgt>
<wgt id='1719'> -7.9311216e+01 </wgt>
<wgt id='1720'> -7.9232838e+01 </wgt>
<wgt id='1721'> -7.9020881e+01 </wgt>
<wgt id='1722'> -7.9307955e+01 </wgt>
<wgt id='1723'> -7.8956536e+01 </wgt>
<wgt id='1724'> -7.9481542e+01 </wgt>
<wgt id='1725'> -7.8245790e+01 </wgt>
<wgt id='1726'> -7.8631509e+01 </wgt>
<wgt id='1727'> -7.8758514e+01 </wgt>
<wgt id='1728'> -7.8789229e+01 </wgt>
<wgt id='1729'> -7.8506802e+01 </wgt>
<wgt id='1730'> -7.9599823e+01 </wgt>
<wgt id='1731'> -7.9075381e+01 </wgt>
<wgt id='1732'> -7.8032900e+01 </wgt>
<wgt id='1733'> -7.8345949e+01 </wgt>
<wgt id='1734'> -7.9674460e+01 </wgt>
<wgt id='1735'> -7.7623285e+01 </wgt>
<wgt id='1736'> -7.5630147e+01 </wgt>
<wgt id='1737'> -8.1570105e+01 </wgt>
<wgt id='1738'> -8.2261247e+01 </wgt>
<wgt id='1739'> -8.2288258e+01 </wgt>
<wgt id='1740'> -8.2234475e+01 </wgt>
<wgt id='1741'> -8.2291372e+01 </wgt>
<wgt id='1742'> -8.2231064e+01 </wgt>
<wgt id='1743'> -8.2427555e+01 </wgt>
<wgt id='1744'> -8.2095301e+01 </wgt>
<wgt id='1745'> -8.2361228e+01 </wgt>
<wgt id='1746'> -8.2160036e+01 </wgt>
<wgt id='1747'> -8.2469627e+01 </wgt>
<wgt id='1748'> -8.2052796e+01 </wgt>
<wgt id='1749'> -8.2187643e+01 </wgt>
<wgt id='1750'> -8.2358646e+01 </wgt>
<wgt id='1751'> -8.2032878e+01 </wgt>
<wgt id='1752'> -8.2491612e+01 </wgt>
<wgt id='1753'> -8.2172385e+01 </wgt>
<wgt id='1754'> -8.2224231e+01 </wgt>
<wgt id='1755'> -8.2354173e+01 </wgt>
<wgt id='1756'> -8.2191603e+01 </wgt>
<wgt id='1757'> -8.1977252e+01 </wgt>
<wgt id='1758'> -8.2511834e+01 </wgt>
<wgt id='1759'> -8.2288024e+01 </wgt>
<wgt id='1760'> -8.2162540e+01 </wgt>
<wgt id='1761'> -8.1952699e+01 </wgt>
<wgt id='1762'> -8.2222077e+01 </wgt>
<wgt id='1763'> -8.2479353e+01 </wgt>
<wgt id='1764'> -8.2137159e+01 </wgt>
<wgt id='1765'> -8.2546140e+01 </wgt>
<wgt id='1766'> -8.2020943e+01 </wgt>
<wgt id='1767'> -8.2261247e+01 </wgt>
<wgt id='1768'> -7.5915972e+01 </wgt>
<wgt id='1769'> -9.0043738e+01 </wgt>
<wgt id='1770'> -7.4148047e+01 </wgt>
<wgt id='1771'> -8.6165788e+01 </wgt>
<wgt id='1772'> -8.2613501e+01 </wgt>
<wgt id='1773'> -8.2059240e+01 </wgt>
<wgt id='1774'> -8.2111300e+01 </wgt>
<wgt id='1775'> -8.2412866e+01 </wgt>
<wgt id='1776'> -8.1900780e+01 </wgt>
<wgt id='1777'> -8.2611215e+01 </wgt>
<wgt id='1778'> -8.2494167e+01 </wgt>
<wgt id='1779'> -8.2307104e+01 </wgt>
<wgt id='1780'> -8.0435252e+01 </wgt>
<wgt id='1781'> -8.2887722e+01 </wgt>
<wgt id='1782'> -8.2947759e+01 </wgt>
<wgt id='1783'> -8.2824429e+01 </wgt>
<wgt id='1784'> -8.2813676e+01 </wgt>
<wgt id='1785'> -8.2958502e+01 </wgt>
<wgt id='1786'> -8.3016971e+01 </wgt>
<wgt id='1787'> -8.2755130e+01 </wgt>
<wgt id='1788'> -8.2962664e+01 </wgt>
<wgt id='1789'> -8.2806576e+01 </wgt>
<wgt id='1790'> -8.2955034e+01 </wgt>
<wgt id='1791'> -8.2819418e+01 </wgt>
<wgt id='1792'> -8.3082675e+01 </wgt>
<wgt id='1793'> -8.2689369e+01 </wgt>
<wgt id='1794'> -8.2683334e+01 </wgt>
<wgt id='1795'> -8.3084979e+01 </wgt>
<wgt id='1796'> -8.2727609e+01 </wgt>
<wgt id='1797'> -8.2920308e+01 </wgt>
<wgt id='1798'> -8.2964383e+01 </wgt>
<wgt id='1799'> -8.2796165e+01 </wgt>
<wgt id='1800'> -8.2653923e+01 </wgt>
<wgt id='1801'> -8.3115382e+01 </wgt>
<wgt id='1802'> -8.2559827e+01 </wgt>
<wgt id='1803'> -8.3122039e+01 </wgt>
<wgt id='1804'> -8.3211649e+01 </wgt>
<wgt id='1805'> -8.2564956e+01 </wgt>
<wgt id='1806'> -8.2898942e+01 </wgt>
<wgt id='1807'> -8.2726334e+01 </wgt>
<wgt id='1808'> -8.3121144e+01 </wgt>
<wgt id='1809'> -8.2725948e+01 </wgt>
<wgt id='1810'> -8.2744795e+01 </wgt>
<wgt id='1811'> -7.5643862e+01 </wgt>
<wgt id='1812'> -9.1384220e+01 </wgt>
<wgt id='1813'> -7.3694605e+01 </wgt>
<wgt id='1814'> -8.7223388e+01 </wgt>
<wgt id='1815'> -8.3513148e+01 </wgt>
<wgt id='1816'> -8.1901289e+01 </wgt>
<wgt id='1817'> -8.2569084e+01 </wgt>
<wgt id='1818'> -8.2961535e+01 </wgt>
<wgt id='1819'> -8.2835968e+01 </wgt>
<wgt id='1820'> -8.3561413e+01 </wgt>
<wgt id='1821'> -8.3021139e+01 </wgt>
<wgt id='1822'> -8.2779671e+01 </wgt>
<wgt id='1823'> -8.1860441e+01 </wgt>
<wgt id='1824'> -7.5565592e+01 </wgt>
<wgt id='1825'> -7.5544464e+01 </wgt>
<wgt id='1826'> -7.5523501e+01 </wgt>
<wgt id='1827'> -7.5502477e+01 </wgt>
<wgt id='1828'> -7.5481506e+01 </wgt>
<wgt id='1829'> -7.5460419e+01 </wgt>
<wgt id='1830'> -7.5439418e+01 </wgt>
<wgt id='1831'> -7.5418447e+01 </wgt>
<wgt id='1832'> -7.5397418e+01 </wgt>
<wgt id='1833'> -7.5376448e+01 </wgt>
<wgt id='1834'> -7.5355406e+01 </wgt>
<wgt id='1835'> -7.5334371e+01 </wgt>
<wgt id='1836'> -7.5313427e+01 </wgt>
<wgt id='1837'> -7.5292469e+01 </wgt>
<wgt id='1838'> -7.5271420e+01 </wgt>
<wgt id='1839'> -7.5250442e+01 </wgt>
<wgt id='1840'> -7.5229460e+01 </wgt>
<wgt id='1841'> -7.5208515e+01 </wgt>
<wgt id='1842'> -7.5187466e+01 </wgt>
<wgt id='1843'> -7.5166550e+01 </wgt>
<wgt id='1844'> -7.5145591e+01 </wgt>
<wgt id='1845'> -7.5124541e+01 </wgt>
<wgt id='1846'> -7.5103578e+01 </wgt>
<wgt id='1847'> -7.5082593e+01 </wgt>
<wgt id='1848'> -7.5061614e+01 </wgt>
<wgt id='1849'> -7.5040680e+01 </wgt>
<wgt id='1850'> -7.5019706e+01 </wgt>
<wgt id='1851'> -7.4998719e+01 </wgt>
<wgt id='1852'> -7.4977773e+01 </wgt>
<wgt id='1853'> -7.4956855e+01 </wgt>
<wgt id='1854'> -7.4935914e+01 </wgt>
<wgt id='1855'> -7.8310079e+01 </wgt>
<wgt id='1856'> -7.9073518e+01 </wgt>
<wgt id='1857'> -7.8727260e+01 </wgt>
<wgt id='1858'> -7.7430890e+01 </wgt>
<wgt id='1859'> -7.6198473e+01 </wgt>
<wgt id='1860'> -7.5914065e+01 </wgt>
<wgt id='1861'> -7.6515693e+01 </wgt>
<wgt id='1862'> -7.7377192e+01 </wgt>
<wgt id='1863'> -7.8412708e+01 </wgt>
<wgt id='1864'> -7.7812088e+01 </wgt>
<wgt id='1865'> -7.9603221e+01 </wgt>
<wgt id='1866'> -7.4878397e+01 </wgt>
<wgt id='1867'> -7.7246968e+01 </wgt>
<wgt id='1868'> -7.6682116e+01 </wgt>
<wgt id='1869'> -7.7884856e+01 </wgt>
<wgt id='1870'> -7.8328335e+01 </wgt>
<wgt id='1871'> -7.8383946e+01 </wgt>
<wgt id='1872'> -7.9570332e+01 </wgt>
<wgt id='1873'> -7.6684855e+01 </wgt>
<wgt id='1874'> -7.8854975e+01 </wgt>
<wgt id='1875'> -7.9081538e+01 </wgt>
<wgt id='1876'> -7.8541772e+01 </wgt>
<wgt id='1877'> -7.8826285e+01 </wgt>
<wgt id='1878'> -7.8793005e+01 </wgt>
<wgt id='1879'> -7.7988669e+01 </wgt>
<wgt id='1880'> -7.8425542e+01 </wgt>
<wgt id='1881'> -7.7875198e+01 </wgt>
<wgt id='1882'> -7.8407882e+01 </wgt>
<wgt id='1883'> -7.8501375e+01 </wgt>
<wgt id='1884'> -7.8193977e+01 </wgt>
<wgt id='1885'> -7.8325437e+01 </wgt>
<wgt id='1886'> -7.8194745e+01 </wgt>
<wgt id='1887'> -7.8603126e+01 </wgt>
<wgt id='1888'> -7.8159729e+01 </wgt>
<wgt id='1889'> -7.8428326e+01 </wgt>
<wgt id='1890'> -7.8716144e+01 </wgt>
<wgt id='1891'> -7.8319924e+01 </wgt>
<wgt id='1892'> -7.8209332e+01 </wgt>
<wgt id='1893'> -7.8313575e+01 </wgt>
<wgt id='1894'> -7.8362593e+01 </wgt>
<wgt id='1895'> -7.7938041e+01 </wgt>
<wgt id='1896'> -7.8387271e+01 </wgt>
<wgt id='1897'> -7.8209000e+01 </wgt>
<wgt id='1898'> -7.8110124e+01 </wgt>
<wgt id='1899'> -7.8337131e+01 </wgt>
<wgt id='1900'> -7.8384480e+01 </wgt>
<wgt id='1901'> -7.8331365e+01 </wgt>
<wgt id='1902'> -7.8186453e+01 </wgt>
<wgt id='1903'> -7.8450754e+01 </wgt>
<wgt id='1904'> -7.8070810e+01 </wgt>
<wgt id='1905'> -7.8158837e+01 </wgt>
<wgt id='1906'> -7.8221055e+01 </wgt>
<wgt id='1907'> -7.8393462e+01 </wgt>
<wgt id='1908'> -7.8362262e+01 </wgt>
<wgt id='1909'> -7.8232483e+01 </wgt>
<wgt id='1910'> -7.8292919e+01 </wgt>
<wgt id='1911'> -7.8370915e+01 </wgt>
<wgt id='1912'> -7.8414014e+01 </wgt>
<wgt id='1913'> -7.8285823e+01 </wgt>
<wgt id='1914'> -7.8243991e+01 </wgt>
<wgt id='1915'> -7.8337143e+01 </wgt>
<wgt id='1916'> -7.8324192e+01 </wgt>
<wgt id='1917'> -7.8242563e+01 </wgt>
<wgt id='1918'> -7.8312648e+01 </wgt>
<wgt id='1919'> -7.8276061e+01 </wgt>
<wgt id='1920'> -7.8245837e+01 </wgt>
<wgt id='1921'> -7.8346889e+01 </wgt>
<wgt id='1922'> -7.8333078e+01 </wgt>
<wgt id='1923'> -7.8391064e+01 </wgt>
<wgt id='1924'> -7.8346974e+01 </wgt>
<wgt id='1925'> -7.8293803e+01 </wgt>
<wgt id='1926'> -7.8362299e+01 </wgt>
<wgt id='1927'> -7.8338494e+01 </wgt>
<wgt id='1928'> -7.8301558e+01 </wgt>
<wgt id='1929'> -7.8327815e+01 </wgt>
<wgt id='1930'> -7.8297675e+01 </wgt>
<wgt id='1931'> -7.8294307e+01 </wgt>
<wgt id='1932'> -7.8314933e+01 </wgt>
<wgt id='1933'> -7.8329802e+01 </wgt>
<wgt id='1934'> -7.8286861e+01 </wgt>
<wgt id='1935'> -7.8344959e+01 </wgt>
<wgt id='1936'> -7.8277462e+01 </wgt>
<wgt id='1937'> -7.8328312e+01 </wgt>
<wgt id='1938'> -7.8266735e+01 </wgt>
<wgt id='1939'> -7.8280091e+01 </wgt>
<wgt id='1940'> -7.8305900e+01 </wgt>
<wgt id='1941'> -7.8323659e+01 </wgt>
<wgt id='1942'> -7.8266559e+01 </wgt>
<wgt id='1943'> -7.8257822e+01 </wgt>
<wgt id='1944'> -7.8294737e+01 </wgt>
<wgt id='1945'> -7.8341918e+01 </wgt>
<wgt id='1946'> -7.8323444e+01 </wgt>
<wgt id='1947'> -7.8320264e+01 </wgt>
<wgt id='1948'> -7.8290902e+01 </wgt>
<wgt id='1949'> -7.8310311e+01 </wgt>
<wgt id='1950'> -7.8316047e+01 </wgt>
<wgt id='1951'> -7.8319592e+01 </wgt>
<wgt id='1952'> -7.8313088e+01 </wgt>
<wgt id='1953'> -7.8312555e+01 </wgt>
<wgt id='1954'> -7.8312351e+01 </wgt>
<wgt id='1955'> -7.8328594e+01 </wgt>
<wgt id='1956'> -7.8309537e+01 </wgt>
<wgt id='1957'> -7.8313020e+01 </wgt>
<wgt id='1958'> -7.8310644e+01 </wgt>
<wgt id='1959'> -7.8310739e+01 </wgt>
<wgt id='1960'> -7.8311733e+01 </wgt>
<wgt id='1961'> -7.8310318e+01 </wgt>
<wgt id='1962'> -7.8313632e+01 </wgt>
</rwgt>
</event>
<event npLO=" -1 " npNLO=" 0 ">
 6      0 +1.5146096e+02 2.97167230e+01 7.54677110e-03 1.25831410e-01
       -2 -1    0    0    0  501 +0.0000000000e+00 +0.0000000000e+00 +8.0490060000e+00 8.0490060000e+00 0.0000000000e+00 0.0000e+00 9.0000e+00
        2 -1    0    0  501    0 +0.0000000000e+00 +0.0000000000e+00 -3.7642825000e+02 3.7642825000e+02 0.0000000000e+00 0.0000e+00 9.0000e+00
       23  2    1    2    0    0 +2.7126722000e+00 -1.5891759000e+01 -3.0214184000e+02 3.1630614000e+02 9.2195334000e+01 0.0000e+00 0.0000e+00
       11  1    3    3    0    0 -1.4315234000e+01 +2.4034376000e+01 -2.3296955000e+02 2.3464311000e+02 0.0000000000e+00 0.0000e+00 9.0000e+00
      -11  1    3    3    0    0 +1.7027906000e+01 -3.9926136000e+01 -6.9172290000e+01 8.1663037000e+01 0.0000000000e+00 0.0000e+00 9.0000e+00
       22  1    1    2    0    0 -2.7126722000e+00 +1.5891759000e+01 -6.6237410000e+01 6.8171117000e+01 0.0000000000e+00 0.0000e+00 9.0000e+00
#aMCatNLO 1  0  0  1  2 0.11407863E+02 0.00000000E+00 -9  6  0 0.00000000E+00 0.00000000E+00 0.00000000E+00 0.00000000E+00 0.00000000E+00
<rwgt>
<wgt id='1001'> +1.5146000e+02 </wgt>
<wgt id='1002'> +1.5146000e+02 </wgt>
<wgt id='1003'> +1.4557000e+02 </wgt>
<wgt id='1004'> +1.5291000e+02 </wgt>
<wgt id='1005'> +1.5694000e+02 </wgt>
<wgt id='1006'> +1.5484000e+02 </wgt>
<wgt id='1007'> +1.4797000e+02 </wgt>
<wgt id='1008'> +1.5332000e+02 </wgt>
<wgt id='1009'> +1.5122000e+02 </wgt>
<wgt id='1010'> +1.4742000e+02 </wgt>
<wgt id='1011'> +1.5011000e+02 </wgt>
<wgt id='1012'> +1.5042000e+02 </wgt>
<wgt id='1013'> +1.4180000e+02 </wgt>
<wgt id='1014'> +1.5459000e+02 </wgt>
<wgt id='1015'> +1.5734000e+02 </wgt>
<wgt id='1016'> +1.5266000e+02 </wgt>
<wgt id='1017'> +1.5084000e+02 </wgt>
<wgt id='1018'> +1.4688000e+02 </wgt>
<wgt id='1019'> +1.5029000e+02 </wgt>
<wgt id='1020'> +1.4406000e+02 </wgt>
<wgt id='1021'> +1.5260000e+02 </wgt>
<wgt id='1022'> +1.4691000e+02 </wgt>
<wgt id='1023'> +1.5760000e+02 </wgt>
<wgt id='1024'> +1.4519000e+02 </wgt>
<wgt id='1025'> +1.5700000e+02 </wgt>
<wgt id='1026'> +1.5712000e+02 </wgt>
<wgt id='1027'> +1.5127000e+02 </wgt>
<wgt id='1028'> +1.5371000e+02 </wgt>
<wgt id='1029'> +1.4703000e+02 </wgt>
<wgt id='1030'> +1.5386000e+02 </wgt>
<wgt id='1031'> +1.4956000e+02 </wgt>
<wgt id='1032'> +1.5108000e+02 </wgt>
<wgt id='1033'> +1.5624000e+02 </wgt>
<wgt id='1034'> +1.4657000e+02 </wgt>
<wgt id='1035'> +1.5281000e+02 </wgt>
<wgt id='1036'> +1.5691000e+02 </wgt>
<wgt id='1037'> +1.5194000e+02 </wgt>
<wgt id='1038'> +1.5140000e+02 </wgt>
<wgt id='1039'> +1.4864000e+02 </wgt>
<wgt id='1040'> +1.4185000e+02 </wgt>
<wgt id='1041'> +1.5048000e+02 </wgt>
<wgt id='1042'> +1.5260000e+02 </wgt>
<wgt id='1043'> +1.5670000e+02 </wgt>
<wgt id='1044'> +1.5389000e+02 </wgt>
<wgt id='1045'> +1.5181000e+02 </wgt>
<wgt id='1046'> +1.4994000e+02 </wgt>
<wgt id='1047'> +1.5489000e+02 </wgt>
<wgt id='1048'> +1.5412000e+02 </wgt>
<wgt id='1049'> +1.4904000e+02 </wgt>
<wgt id='1050'> +1.5181000e+02 </wgt>
<wgt id='1051'> +1.5189000e+02 </wgt>
<wgt id='1052'> +1.5495000e+02 </wgt>
<wgt id='1053'> +1.5255000e+02 </wgt>
<wgt id='1054'> +1.5024000e+02 </wgt>
<wgt id='1055'> +1.5511000e+02 </wgt>
<wgt id='1056'> +1.5409000e+02 </wgt>
<wgt id='1057'> +1.5266000e+02 </wgt>
<wgt id='1058'> +1.5070000e+02 </wgt>
<wgt id='1059'> +1.5452000e+02 </wgt>
<wgt id='1060'> +1.5416000e+02 </wgt>
<wgt id='1061'> +1.5416000e+02 </wgt>
<wgt id='1062'> +1.5097000e+02 </wgt>
<wgt id='1063'> +1.5161000e+02 </wgt>
<wgt id='1064'> +1.5083000e+02 </wgt>
<wgt id='1065'> +1.6005000e+02 </wgt>
<wgt id='1066'> +1.4048000e+02 </wgt>
<wgt id='1067'> +1.5324000e+02 </wgt>
<wgt id='1068'> +1.5235000e+02 </wgt>
<wgt id='1069'> +1.4791000e+02 </wgt>
<wgt id='1070'> +1.5472000e+02 </wgt>
<wgt id='1071'> +1.4986000e+02 </wgt>
<wgt id='1072'> +1.4924000e+02 </wgt>
<wgt id='1073'> +1.5262000e+02 </wgt>
<wgt id='1074'> +1.4869000e+02 </wgt>
<wgt id='1075'> +1.4388000e+02 </wgt>
<wgt id='1076'> +1.5805000e+02 </wgt>
<wgt id='1077'> +1.5257000e+02 </wgt>
<wgt id='1078'> +1.4630000e+02 </wgt>
<wgt id='1079'> +1.5011000e+02 </wgt>
<wgt id='1080'> +1.5173000e+02 </wgt>
<wgt id='1081'> +1.4720000e+02 </wgt>
<wgt id='1082'> +1.5079000e+02 </wgt>
<wgt id='1083'> +1.5623000e+02 </wgt>
<wgt id='1084'> +1.5729000e+02 </wgt>
<wgt id='1085'> +1.4706000e+02 </wgt>
<wgt id='1086'> +1.5278000e+02 </wgt>
<wgt id='1087'> +1.5053000e+02 </wgt>
<wgt id='1088'> +1.5017000e+02 </wgt>
<wgt id='1089'> +1.5419000e+02 </wgt>
<wgt id='1090'> +1.5363000e+02 </wgt>
<wgt id='1091'> +1.4753000e+02 </wgt>
<wgt id='1092'> +1.5508000e+02 </wgt>
<wgt id='1093'> +1.5081000e+02 </wgt>
<wgt id='1094'> +1.4737000e+02 </wgt>
<wgt id='1095'> +1.4881000e+02 </wgt>
<wgt id='1096'> +1.5318000e+02 </wgt>
<wgt id='1097'> +1.4787000e+02 </wgt>
<wgt id='1098'> +1.5226000e+02 </wgt>
<wgt id='1099'> +1.5256000e+02 </wgt>
<wgt id='1100'> +1.5706000e+02 </wgt>
<wgt id='1101'> +1.5272000e+02 </wgt>
<wgt id='1102'> +1.4722000e+02 </wgt>
<wgt id='1103'> +1.5035000e+02 </wgt>
<wgt id='1104'> +1.5248000e+02 </wgt>
<wgt id='1105'> +1.5146096e+02 </wgt>
<wgt id='1106'> +7.4514499e+01 </wgt>
<wgt id='1107'> +7.7257157e+01 </wgt>
<wgt id='1108'> +7.5592961e+01 </wgt>
<wgt id='1109'> +7.5158289e+01 </wgt>
<wgt id='1110'> +7.6136912e+01 </wgt>
<wgt id='1111'> +7.3888468e+01 </wgt>
<wgt id='1112'> +7.2019405e+01 </wgt>
<wgt id='1113'> +7.6236648e+01 </wgt>
<wgt id='1114'> +8.3365652e+01 </wgt>
<wgt id='1115'> +8.6904752e+01 </wgt>
<wgt id='1116'> +8.2715822e+01 </wgt>
<wgt id='1117'> +8.1809530e+01 </wgt>
<wgt id='1118'> +8.1090874e+01 </wgt>
<wgt id='1119'> +8.2055797e+01 </wgt>
<wgt id='1120'> +8.3762654e+01 </wgt>
<wgt id='1121'> +8.4432181e+01 </wgt>
<wgt id='1122'> +8.3292551e+01 </wgt>
<wgt id='1123'> +8.1482753e+01 </wgt>
<wgt id='1124'> +8.1801274e+01 </wgt>
<wgt id='1125'> +8.3947475e+01 </wgt>
<wgt id='1126'> +8.1420764e+01 </wgt>
<wgt id='1127'> +8.3242297e+01 </wgt>
<wgt id='1128'> +8.5785030e+01 </wgt>
<wgt id='1129'> +8.3485623e+01 </wgt>
<wgt id='1130'> +8.3951745e+01 </wgt>
<wgt id='1131'> +8.4747056e+01 </wgt>
<wgt id='1132'> +8.2317526e+01 </wgt>
<wgt id='1133'> +8.5135452e+01 </wgt>
<wgt id='1134'> +8.1300094e+01 </wgt>
<wgt id='1135'> +8.2082634e+01 </wgt>
<wgt id='1136'> +8.3157476e+01 </wgt>
<wgt id='1137'> +8.3623960e+01 </wgt>
<wgt id='1138'> +8.2569818e+01 </wgt>
<wgt id='1139'> +8.2743036e+01 </wgt>
<wgt id='1140'> +8.6763076e+01 </wgt>
<wgt id='1141'> +8.5616264e+01 </wgt>
<wgt id='1142'> +8.3324585e+01 </wgt>
<wgt id='1143'> +8.5702649e+01 </wgt>
<wgt id='1144'> +8.4615406e+01 </wgt>
<wgt id='1145'> +8.4119629e+01 </wgt>
<wgt id='1146'> +8.0749297e+01 </wgt>
<wgt id='1147'> +8.3268468e+01 </wgt>
<wgt id='1148'> +8.2578610e+01 </wgt>
<wgt id='1149'> +8.3044515e+01 </wgt>
<wgt id='1150'> +8.3095098e+01 </wgt>
<wgt id='1151'> +8.1800510e+01 </wgt>
<wgt id='1152'> +8.2672194e+01 </wgt>
<wgt id='1153'> +8.3163772e+01 </wgt>
<wgt id='1154'> +8.4743830e+01 </wgt>
<wgt id='1155'> +8.4205805e+01 </wgt>
<wgt id='1156'> +8.4518638e+01 </wgt>
<wgt id='1157'> +8.3467398e+01 </wgt>
<wgt id='1158'> +8.4047306e+01 </wgt>
<wgt id='1159'> +8.2197224e+01 </wgt>
<wgt id='1160'> +8.5001793e+01 </wgt>
<wgt id='1161'> +8.4283512e+01 </wgt>
<wgt id='1162'> +8.7215429e+01 </wgt>
<wgt id='1163'> +8.5056391e+01 </wgt>
<wgt id='1164'> +8.3808607e+01 </wgt>
<wgt id='1165'> +8.3061344e+01 </wgt>
<wgt id='1166'> +8.1950380e+01 </wgt>
<wgt id='1167'> +8.5230388e+01 </wgt>
<wgt id='1168'> +8.3883503e+01 </wgt>
<wgt id='1169'> +8.7052308e+01 </wgt>
<wgt id='1170'> +8.2354207e+01 </wgt>
<wgt id='1171'> +8.3985957e+01 </wgt>
<wgt id='1172'> +8.3137797e+01 </wgt>
<wgt id='1173'> +8.4039432e+01 </wgt>
<wgt id='1174'> +8.4642764e+01 </wgt>
<wgt id='1175'> +8.3401516e+01 </wgt>
<wgt id='1176'> +8.2811949e+01 </wgt>
<wgt id='1177'> +8.4736675e+01 </wgt>
<wgt id='1178'> +8.4073687e+01 </wgt>
<wgt id='1179'> +8.3858887e+01 </wgt>
<wgt id='1180'> +8.3907713e+01 </wgt>
<wgt id='1181'> +8.4298684e+01 </wgt>
<wgt id='1182'> +8.3987179e+01 </wgt>
<wgt id='1183'> +8.4622614e+01 </wgt>
<wgt id='1184'> +8.2996417e+01 </wgt>
<wgt id='1185'> +8.2240354e+01 </wgt>
<wgt id='1186'> +8.5632414e+01 </wgt>
<wgt id='1187'> +7.8144334e+01 </wgt>
<wgt id='1188'> +8.0876923e+01 </wgt>
<wgt id='1189'> +8.1943102e+01 </wgt>
<wgt id='1190'> +8.7039658e+01 </wgt>
<wgt id='1191'> +8.1013304e+01 </wgt>
<wgt id='1192'> +8.3807366e+01 </wgt>
<wgt id='1193'> +8.3067502e+01 </wgt>
<wgt id='1194'> +8.4763726e+01 </wgt>
<wgt id='1195'> +8.2259455e+01 </wgt>
<wgt id='1196'> +8.3951745e+01 </wgt>
<wgt id='1197'> +8.2158398e+01 </wgt>
<wgt id='1198'> +8.2532262e+01 </wgt>
<wgt id='1199'> +8.2176881e+01 </wgt>
<wgt id='1200'> +8.5364093e+01 </wgt>
<wgt id='1201'> +8.1257508e+01 </wgt>
<wgt id='1202'> +8.3547301e+01 </wgt>
<wgt id='1203'> +7.8625039e+01 </wgt>
<wgt id='1204'> +8.1989810e+01 </wgt>
<wgt id='1205'> +8.4101549e+01 </wgt>
<wgt id='1206'> +8.2570094e+01 </wgt>
<wgt id='1207'> +8.2128419e+01 </wgt>
<wgt id='1208'> +8.3482464e+01 </wgt>
<wgt id='1209'> +8.1043864e+01 </wgt>
<wgt id='1210'> +8.3200813e+01 </wgt>
<wgt id='1211'> +8.3750432e+01 </wgt>
<wgt id='1212'> +8.2259995e+01 </wgt>
<wgt id='1213'> +8.3630493e+01 </wgt>
<wgt id='1214'> +8.2367078e+01 </wgt>
<wgt id='1215'> +8.0041260e+01 </wgt>
<wgt id='1216'> +8.1569654e+01 </wgt>
<wgt id='1217'> +8.1560090e+01 </wgt>
<wgt id='1218'> +8.1714521e+01 </wgt>
<wgt id='1219'> +8.1485211e+01 </wgt>
<wgt id='1220'> +8.2072587e+01 </wgt>
<wgt id='1221'> +8.1503115e+01 </wgt>
<wgt id='1222'> +8.1418483e+01 </wgt>
<wgt id='1223'> +8.1489428e+01 </wgt>
<wgt id='1224'> +8.1233974e+01 </wgt>
<wgt id='1225'> +8.1624127e+01 </wgt>
<wgt id='1226'> +8.1115516e+01 </wgt>
<wgt id='1227'> +8.1473262e+01 </wgt>
<wgt id='1228'> +8.1603934e+01 </wgt>
<wgt id='1229'> +8.1607654e+01 </wgt>
<wgt id='1230'> +8.1887348e+01 </wgt>
<wgt id='1231'> +8.1100000e+01 </wgt>
<wgt id='1232'> +8.1487429e+01 </wgt>
<wgt id='1233'> +8.1484160e+01 </wgt>
<wgt id='1234'> +8.1699929e+01 </wgt>
<wgt id='1235'> +8.1673155e+01 </wgt>
<wgt id='1236'> +8.1261374e+01 </wgt>
<wgt id='1237'> +8.1858242e+01 </wgt>
<wgt id='1238'> +8.1747925e+01 </wgt>
<wgt id='1239'> +8.1949907e+01 </wgt>
<wgt id='1240'> +8.1627857e+01 </wgt>
<wgt id='1241'> +8.1124050e+01 </wgt>
<wgt id='1242'> +8.1402815e+01 </wgt>
<wgt id='1243'> +8.1849488e+01 </wgt>
<wgt id='1244'> +8.1553148e+01 </wgt>
<wgt id='1245'> +8.2284881e+01 </wgt>
<wgt id='1246'> +8.1368208e+01 </wgt>
<wgt id='1247'> +8.1127683e+01 </wgt>
<wgt id='1248'> +8.1553835e+01 </wgt>
<wgt id='1249'> +8.1638503e+01 </wgt>
<wgt id='1250'> +8.1762111e+01 </wgt>
<wgt id='1251'> +8.1707224e+01 </wgt>
<wgt id='1252'> +8.1728793e+01 </wgt>
<wgt id='1253'> +8.1490303e+01 </wgt>
<wgt id='1254'> +8.1644448e+01 </wgt>
<wgt id='1255'> +8.1465543e+01 </wgt>
<wgt id='1256'> +8.1547733e+01 </wgt>
<wgt id='1257'> +8.1510228e+01 </wgt>
<wgt id='1258'> +8.1684996e+01 </wgt>
<wgt id='1259'> +8.1438638e+01 </wgt>
<wgt id='1260'> +8.1599411e+01 </wgt>
<wgt id='1261'> +8.1625154e+01 </wgt>
<wgt id='1262'> +8.1557486e+01 </wgt>
<wgt id='1263'> +8.1561299e+01 </wgt>
<wgt id='1264'> +8.1726087e+01 </wgt>
<wgt id='1265'> +8.1710937e+01 </wgt>
<wgt id='1266'> +8.1459229e+01 </wgt>
<wgt id='1267'> +8.1494618e+01 </wgt>
<wgt id='1268'> +8.1568826e+01 </wgt>
<wgt id='1269'> +8.1445195e+01 </wgt>
<wgt id='1270'> +8.1599059e+01 </wgt>
<wgt id='1271'> +8.1676311e+01 </wgt>
<wgt id='1272'> +8.1480354e+01 </wgt>
<wgt id='1273'> +8.1529445e+01 </wgt>
<wgt id='1274'> +8.1365710e+01 </wgt>
<wgt id='1275'> +8.1599730e+01 </wgt>
<wgt id='1276'> +8.1660682e+01 </wgt>
<wgt id='1277'> +8.1599304e+01 </wgt>
<wgt id='1278'> +8.1521559e+01 </wgt>
<wgt id='1279'> +8.1636808e+01 </wgt>
<wgt id='1280'> +8.1604422e+01 </wgt>
<wgt id='1281'> +8.1719322e+01 </wgt>
<wgt id='1282'> +8.1524131e+01 </wgt>
<wgt id='1283'> +8.1511209e+01 </wgt>
<wgt id='1284'> +8.1641835e+01 </wgt>
<wgt id='1285'> +8.1466238e+01 </wgt>
<wgt id='1286'> +8.1690105e+01 </wgt>
<wgt id='1287'> +8.1552829e+01 </wgt>
<wgt id='1288'> +8.1696139e+01 </wgt>
<wgt id='1289'> +8.1530668e+01 </wgt>
<wgt id='1290'> +8.1554718e+01 </wgt>
<wgt id='1291'> +8.1493029e+01 </wgt>
<wgt id='1292'> +8.1505686e+01 </wgt>
<wgt id='1293'> +8.1620720e+01 </wgt>
<wgt id='1294'> +8.1555324e+01 </wgt>
<wgt id='1295'> +8.1550918e+01 </wgt>
<wgt id='1296'> +8.1537606e+01 </wgt>
<wgt id='1297'> +8.1607780e+01 </wgt>
<wgt id='1298'> +8.1528650e+01 </wgt>
<wgt id='1299'> +8.1609009e+01 </wgt>
<wgt id='1300'> +8.1500129e+01 </wgt>
<wgt id='1301'> +8.1527703e+01 </wgt>
<wgt id='1302'> +8.1537928e+01 </wgt>
<wgt id='1303'> +8.1562620e+01 </wgt>
<wgt id='1304'> +8.1543397e+01 </wgt>
<wgt id='1305'> +8.1470497e+01 </wgt>
<wgt id='1306'> +8.1581957e+01 </wgt>
<wgt id='1307'> +8.1521340e+01 </wgt>
<wgt id='1308'> +8.1529010e+01 </wgt>
<wgt id='1309'> +8.1552740e+01 </wgt>
<wgt id='1310'> +8.1640950e+01 </wgt>
<wgt id='1311'> +8.1577013e+01 </wgt>
<wgt id='1312'> +8.1546211e+01 </wgt>
<wgt id='1313'> +8.1559178e+01 </wgt>
<wgt id='1314'> +8.1606552e+01 </wgt>
<wgt id='1315'> +8.1582610e+01 </wgt>
<wgt id='1316'> +8.1495908e+01 </wgt>
<wgt id='1317'> +8.0703282e+01 </wgt>
<wgt id='1318'> +8.2721887e+01 </wgt>
<wgt id='1319'> +8.1022763e+01 </wgt>
<wgt id='1320'> +8.0197998e+01 </wgt>
<wgt id='1321'> +8.0142418e+01 </wgt>
<wgt id='1322'> +8.1405800e+01 </wgt>
<wgt id='1323'> +8.1075409e+01 </wgt>
<wgt id='1324'> +8.0955343e+01 </wgt>
<wgt id='1325'> +7.9914083e+01 </wgt>
<wgt id='1326'> +8.1300929e+01 </wgt>
<wgt id='1327'> +7.9397421e+01 </wgt>
<wgt id='1328'> +8.2682214e+01 </wgt>
<wgt id='1329'> +7.8648024e+01 </wgt>
<wgt id='1330'> +8.2657851e+01 </wgt>
<wgt id='1331'> +8.1521776e+01 </wgt>
<wgt id='1332'> +7.9652270e+01 </wgt>
<wgt id='1333'> +7.8740834e+01 </wgt>
<wgt id='1334'> +8.0542536e+01 </wgt>
<wgt id='1335'> +8.1088878e+01 </wgt>
<wgt id='1336'> +7.8731259e+01 </wgt>
<wgt id='1337'> +8.1745310e+01 </wgt>
<wgt id='1338'> +7.8389773e+01 </wgt>
<wgt id='1339'> +8.1296505e+01 </wgt>
<wgt id='1340'> +7.9004546e+01 </wgt>
<wgt id='1341'> +8.0412645e+01 </wgt>
<wgt id='1342'> +7.9747235e+01 </wgt>
<wgt id='1343'> +8.0465594e+01 </wgt>
<wgt id='1344'> +7.9857217e+01 </wgt>
<wgt id='1345'> +7.9537721e+01 </wgt>
<wgt id='1346'> +8.0921625e+01 </wgt>
<wgt id='1347'> +7.9577349e+01 </wgt>
<wgt id='1348'> +8.0970928e+01 </wgt>
<wgt id='1349'> +7.9153447e+01 </wgt>
<wgt id='1350'> +8.0552730e+01 </wgt>
<wgt id='1351'> +8.0119947e+01 </wgt>
<wgt id='1352'> +8.0300000e+01 </wgt>
<wgt id='1353'> +8.0198360e+01 </wgt>
<wgt id='1354'> +8.0152370e+01 </wgt>
<wgt id='1355'> +7.9255818e+01 </wgt>
<wgt id='1356'> +8.1231413e+01 </wgt>
<wgt id='1357'> +8.0240775e+01 </wgt>
<wgt id='1358'> +7.9704045e+01 </wgt>
<wgt id='1359'> +7.9218893e+01 </wgt>
<wgt id='1360'> +8.0417178e+01 </wgt>
<wgt id='1361'> +8.1498738e+01 </wgt>
<wgt id='1362'> +7.8887148e+01 </wgt>
<wgt id='1363'> +8.0625142e+01 </wgt>
<wgt id='1364'> +7.9502955e+01 </wgt>
<wgt id='1365'> +8.0260750e+01 </wgt>
<wgt id='1366'> +8.0093662e+01 </wgt>
<wgt id='1367'> +8.0225208e+01 </wgt>
<wgt id='1368'> +8.0029291e+01 </wgt>
<wgt id='1369'> +8.0888738e+01 </wgt>
<wgt id='1370'> +7.9689248e+01 </wgt>
<wgt id='1371'> +7.9218050e+01 </wgt>
<wgt id='1372'> +8.0215642e+01 </wgt>
<wgt id='1373'> +8.0203290e+01 </wgt>
<wgt id='1374'> +7.9579267e+01 </wgt>
<wgt id='1375'> +7.7661530e+01 </wgt>
<wgt id='1376'> +8.2210042e+01 </wgt>
<wgt id='1377'> +7.8906893e+01 </wgt>
<wgt id='1378'> +8.1414979e+01 </wgt>
<wgt id='1379'> +8.4367161e+01 </wgt>
<wgt id='1380'> +8.3057793e+01 </wgt>
<wgt id='1381'> +8.5654912e+01 </wgt>
<wgt id='1382'> +7.0964999e+01 </wgt>
<wgt id='1383'> +7.5969205e+01 </wgt>
<wgt id='1384'> +8.2459976e+01 </wgt>
<wgt id='1385'> +6.6667779e+01 </wgt>
<wgt id='1386'> +6.6585460e+01 </wgt>
<wgt id='1387'> +6.6750881e+01 </wgt>
<wgt id='1388'> +6.6432678e+01 </wgt>
<wgt id='1389'> +6.7061762e+01 </wgt>
<wgt id='1390'> +6.6972031e+01 </wgt>
<wgt id='1391'> +6.6296039e+01 </wgt>
<wgt id='1392'> +6.6972172e+01 </wgt>
<wgt id='1393'> +6.6452551e+01 </wgt>
<wgt id='1394'> +6.6566344e+01 </wgt>
<wgt id='1395'> +6.6781125e+01 </wgt>
<wgt id='1396'> +6.6403440e+01 </wgt>
<wgt id='1397'> +6.6794115e+01 </wgt>
<wgt id='1398'> +6.6349471e+01 </wgt>
<wgt id='1399'> +6.6895016e+01 </wgt>
<wgt id='1400'> +6.7092664e+01 </wgt>
<wgt id='1401'> +6.6322911e+01 </wgt>
<wgt id='1402'> +6.7110547e+01 </wgt>
<wgt id='1403'> +6.6458107e+01 </wgt>
<wgt id='1404'> +6.5197396e+01 </wgt>
<wgt id='1405'> +6.7391077e+01 </wgt>
<wgt id='1406'> +6.6231551e+01 </wgt>
<wgt id='1407'> +6.7433964e+01 </wgt>
<wgt id='1408'> +6.6574735e+01 </wgt>
<wgt id='1409'> +6.6834021e+01 </wgt>
<wgt id='1410'> +6.6720044e+01 </wgt>
<wgt id='1411'> +6.6494460e+01 </wgt>
<wgt id='1412'> +6.6920199e+01 </wgt>
<wgt id='1413'> +6.6100732e+01 </wgt>
<wgt id='1414'> +6.6795327e+01 </wgt>
<wgt id='1415'> +6.6563708e+01 </wgt>
<wgt id='1416'> +6.6871091e+01 </wgt>
<wgt id='1417'> +6.6595068e+01 </wgt>
<wgt id='1418'> +6.6411339e+01 </wgt>
<wgt id='1419'> +6.7151556e+01 </wgt>
<wgt id='1420'> +6.6302133e+01 </wgt>
<wgt id='1421'> +6.6774237e+01 </wgt>
<wgt id='1422'> +6.6826542e+01 </wgt>
<wgt id='1423'> +6.6509346e+01 </wgt>
<wgt id='1424'> +6.6919844e+01 </wgt>
<wgt id='1425'> +6.5966248e+01 </wgt>
<wgt id='1426'> +6.7143043e+01 </wgt>
<wgt id='1427'> +6.6891132e+01 </wgt>
<wgt id='1428'> +6.6277687e+01 </wgt>
<wgt id='1429'> +6.6063127e+01 </wgt>
<wgt id='1430'> +6.7133474e+01 </wgt>
<wgt id='1431'> +6.7069958e+01 </wgt>
<wgt id='1432'> +6.7135860e+01 </wgt>
<wgt id='1433'> +6.7219866e+01 </wgt>
<wgt id='1434'> +6.6786851e+01 </wgt>
<wgt id='1435'> +6.7083442e+01 </wgt>
<wgt id='1436'> +8.3635224e+01 </wgt>
<wgt id='1437'> +8.3780032e+01 </wgt>
<wgt id='1438'> +8.3444892e+01 </wgt>
<wgt id='1439'> +8.3635713e+01 </wgt>
<wgt id='1440'> +8.3675802e+01 </wgt>
<wgt id='1441'> +8.3974142e+01 </wgt>
<wgt id='1442'> +8.3530301e+01 </wgt>
<wgt id='1443'> +8.3951921e+01 </wgt>
<wgt id='1444'> +8.3498869e+01 </wgt>
<wgt id='1445'> +8.3315857e+01 </wgt>
<wgt id='1446'> +8.3704323e+01 </wgt>
<wgt id='1447'> +8.3813993e+01 </wgt>
<wgt id='1448'> +8.3329347e+01 </wgt>
<wgt id='1449'> +8.3922240e+01 </wgt>
<wgt id='1450'> +8.3625012e+01 </wgt>
<wgt id='1451'> +8.3658755e+01 </wgt>
<wgt id='1452'> +8.3328147e+01 </wgt>
<wgt id='1453'> +8.3514931e+01 </wgt>
<wgt id='1454'> +8.3711167e+01 </wgt>
<wgt id='1455'> +8.3274170e+01 </wgt>
<wgt id='1456'> +8.3388749e+01 </wgt>
<wgt id='1457'> +8.3861952e+01 </wgt>
<wgt id='1458'> +8.3370598e+01 </wgt>
<wgt id='1459'> +8.3724450e+01 </wgt>
<wgt id='1460'> +8.3774768e+01 </wgt>
<wgt id='1461'> +8.4215616e+01 </wgt>
<wgt id='1462'> +8.3787692e+01 </wgt>
<wgt id='1463'> +8.3852737e+01 </wgt>
<wgt id='1464'> +8.3733598e+01 </wgt>
<wgt id='1465'> +8.5834609e+01 </wgt>
<wgt id='1466'> +7.7230179e+01 </wgt>
<wgt id='1467'> +7.6858146e+01 </wgt>
<wgt id='1468'> +7.6402606e+01 </wgt>
<wgt id='1469'> +7.8589331e+01 </wgt>
<wgt id='1470'> +7.6910195e+01 </wgt>
<wgt id='1471'> +7.7458134e+01 </wgt>
<wgt id='1472'> +7.6328452e+01 </wgt>
<wgt id='1473'> +7.8057275e+01 </wgt>
<wgt id='1474'> +7.7784554e+01 </wgt>
<wgt id='1475'> +7.6468724e+01 </wgt>
<wgt id='1476'> +7.6575674e+01 </wgt>
<wgt id='1477'> +7.6711363e+01 </wgt>
<wgt id='1478'> +7.6897008e+01 </wgt>
<wgt id='1479'> +7.8346831e+01 </wgt>
<wgt id='1480'> +7.7259547e+01 </wgt>
<wgt id='1481'> +7.6901313e+01 </wgt>
<wgt id='1482'> +7.7127603e+01 </wgt>
<wgt id='1483'> +7.6964831e+01 </wgt>
<wgt id='1484'> +7.8069549e+01 </wgt>
<wgt id='1485'> +7.6909097e+01 </wgt>
<wgt id='1486'> +7.7348338e+01 </wgt>
<wgt id='1487'> +7.6952864e+01 </wgt>
<wgt id='1488'> +7.6510335e+01 </wgt>
<wgt id='1489'> +7.7533585e+01 </wgt>
<wgt id='1490'> +7.7312631e+01 </wgt>
<wgt id='1491'> +7.7610205e+01 </wgt>
<wgt id='1492'> +7.7098522e+01 </wgt>
<wgt id='1493'> +7.7182070e+01 </wgt>
<wgt id='1494'> +7.7318935e+01 </wgt>
<wgt id='1495'> +7.7080780e+01 </wgt>
<wgt id='1496'> +7.7039621e+01 </wgt>
<wgt id='1497'> +7.7308986e+01 </wgt>
<wgt id='1498'> +7.6926773e+01 </wgt>
<wgt id='1499'> +7.6761134e+01 </wgt>
<wgt id='1500'> +7.7325085e+01 </wgt>
<wgt id='1501'> +7.7344609e+01 </wgt>
<wgt id='1502'> +7.7156412e+01 </wgt>
<wgt id='1503'> +7.7041931e+01 </wgt>
<wgt id='1504'> +7.7353474e+01 </wgt>
<wgt id='1505'> +7.7403958e+01 </wgt>
<wgt id='1506'> +7.7252117e+01 </wgt>
<wgt id='1507'> +7.7367572e+01 </wgt>
<wgt id='1508'> +7.7151704e+01 </wgt>
<wgt id='1509'> +7.7242413e+01 </wgt>
<wgt id='1510'> +7.7334565e+01 </wgt>
<wgt id='1511'> +7.7217117e+01 </wgt>
<wgt id='1512'> +7.7120039e+01 </wgt>
<wgt id='1513'> +7.7002080e+01 </wgt>
<wgt id='1514'> +7.7222903e+01 </wgt>
<wgt id='1515'> +7.7191899e+01 </wgt>
<wgt id='1516'> +7.7174058e+01 </wgt>
<wgt id='1517'> +7.7240078e+01 </wgt>
<wgt id='1518'> +7.7243425e+01 </wgt>
<wgt id='1519'> +7.7357587e+01 </wgt>
<wgt id='1520'> +7.7213726e+01 </wgt>
<wgt id='1521'> +7.7276722e+01 </wgt>
<wgt id='1522'> +7.7301418e+01 </wgt>
<wgt id='1523'> +7.7281072e+01 </wgt>
<wgt id='1524'> +7.7335914e+01 </wgt>
<wgt id='1525'> +7.7161617e+01 </wgt>
<wgt id='1526'> +7.7087266e+01 </wgt>
<wgt id='1527'> +7.7226417e+01 </wgt>
<wgt id='1528'> +7.7218135e+01 </wgt>
<wgt id='1529'> +7.7227728e+01 </wgt>
<wgt id='1530'> +7.7266982e+01 </wgt>
<wgt id='1531'> +7.7242662e+01 </wgt>
<wgt id='1532'> +7.7220285e+01 </wgt>
<wgt id='1533'> +7.7231945e+01 </wgt>
<wgt id='1534'> +7.7268673e+01 </wgt>
<wgt id='1535'> +7.7235939e+01 </wgt>
<wgt id='1536'> +7.7139011e+01 </wgt>
<wgt id='1537'> +7.7170770e+01 </wgt>
<wgt id='1538'> +7.7254646e+01 </wgt>
<wgt id='1539'> +7.7235810e+01 </wgt>
<wgt id='1540'> +7.7202390e+01 </wgt>
<wgt id='1541'> +7.7182271e+01 </wgt>
<wgt id='1542'> +7.7259751e+01 </wgt>
<wgt id='1543'> +7.7235926e+01 </wgt>
<wgt id='1544'> +7.7232344e+01 </wgt>
<wgt id='1545'> +7.7255506e+01 </wgt>
<wgt id='1546'> +7.7253444e+01 </wgt>
<wgt id='1547'> +7.7251848e+01 </wgt>
<wgt id='1548'> +7.7198165e+01 </wgt>
<wgt id='1549'> +7.7226822e+01 </wgt>
<wgt id='1550'> +7.7238660e+01 </wgt>
<wgt id='1551'> +7.7205003e+01 </wgt>
<wgt id='1552'> +7.7240695e+01 </wgt>
<wgt id='1553'> +7.7206693e+01 </wgt>
<wgt id='1554'> +7.7249477e+01 </wgt>
<wgt id='1555'> +7.7230550e+01 </wgt>
<wgt id='1556'> +7.7241962e+01 </wgt>
<wgt id='1557'> +7.7227774e+01 </wgt>
<wgt id='1558'> +7.7253411e+01 </wgt>
<wgt id='1559'> +7.7240803e+01 </wgt>
<wgt id='1560'> +7.7232601e+01 </wgt>
<wgt id='1561'> +7.7218327e+01 </wgt>
<wgt id='1562'> +7.7238261e+01 </wgt>
<wgt id='1563'> +7.7217059e+01 </wgt>
<wgt id='1564'> +7.7230052e+01 </wgt>
<wgt id='1565'> +7.7229357e+01 </wgt>
<wgt id='1566'> +7.7223993e+01 </wgt>
<wgt id='1567'> +7.6201319e+01 </wgt>
<wgt id='1568'> +7.8360649e+01 </wgt>
<wgt id='1569'> +8.2221548e+01 </wgt>
<wgt id='1570'> +8.2696738e+01 </wgt>
<wgt id='1571'> +8.1543830e+01 </wgt>
<wgt id='1572'> +8.3027827e+01 </wgt>
<wgt id='1573'> +8.3256816e+01 </wgt>
<wgt id='1574'> +8.3104190e+01 </wgt>
<wgt id='1575'> +8.2808165e+01 </wgt>
<wgt id='1576'> +8.2346472e+01 </wgt>
<wgt id='1577'> +8.2360960e+01 </wgt>
<wgt id='1578'> +8.2597250e+01 </wgt>
<wgt id='1579'> +8.2485338e+01 </wgt>
<wgt id='1580'> +8.2587738e+01 </wgt>
<wgt id='1581'> +8.1778313e+01 </wgt>
<wgt id='1582'> +8.2564767e+01 </wgt>
<wgt id='1583'> +8.1560703e+01 </wgt>
<wgt id='1584'> +8.1798115e+01 </wgt>
<wgt id='1585'> +8.1840602e+01 </wgt>
<wgt id='1586'> +8.2521920e+01 </wgt>
<wgt id='1587'> +8.2481937e+01 </wgt>
<wgt id='1588'> +8.0916234e+01 </wgt>
<wgt id='1589'> +8.2504355e+01 </wgt>
<wgt id='1590'> +8.2563321e+01 </wgt>
<wgt id='1591'> +8.2133666e+01 </wgt>
<wgt id='1592'> +8.2436129e+01 </wgt>
<wgt id='1593'> +8.2649601e+01 </wgt>
<wgt id='1594'> +8.2463671e+01 </wgt>
<wgt id='1595'> +8.2049785e+01 </wgt>
<wgt id='1596'> +8.2159583e+01 </wgt>
<wgt id='1597'> +8.2524051e+01 </wgt>
<wgt id='1598'> +8.2523282e+01 </wgt>
<wgt id='1599'> +8.2535440e+01 </wgt>
<wgt id='1600'> +8.2555748e+01 </wgt>
<wgt id='1601'> +8.2580019e+01 </wgt>
<wgt id='1602'> +8.2725397e+01 </wgt>
<wgt id='1603'> +8.2555981e+01 </wgt>
<wgt id='1604'> +8.2223553e+01 </wgt>
<wgt id='1605'> +8.2299485e+01 </wgt>
<wgt id='1606'> +8.2040808e+01 </wgt>
<wgt id='1607'> +8.2215985e+01 </wgt>
<wgt id='1608'> +8.2287282e+01 </wgt>
<wgt id='1609'> +8.2253846e+01 </wgt>
<wgt id='1610'> +8.2377431e+01 </wgt>
<wgt id='1611'> +8.2334468e+01 </wgt>
<wgt id='1612'> +8.2046849e+01 </wgt>
<wgt id='1613'> +8.2180509e+01 </wgt>
<wgt id='1614'> +8.2056127e+01 </wgt>
<wgt id='1615'> +8.2191818e+01 </wgt>
<wgt id='1616'> +8.2254402e+01 </wgt>
<wgt id='1617'> +8.2361840e+01 </wgt>
<wgt id='1618'> +8.2229612e+01 </wgt>
<wgt id='1619'> +8.2281220e+01 </wgt>
<wgt id='1620'> +8.2155187e+01 </wgt>
<wgt id='1621'> +8.2052095e+01 </wgt>
<wgt id='1622'> +8.2348004e+01 </wgt>
<wgt id='1623'> +8.2174527e+01 </wgt>
<wgt id='1624'> +8.2334759e+01 </wgt>
<wgt id='1625'> +8.2318856e+01 </wgt>
<wgt id='1626'> +8.2199623e+01 </wgt>
<wgt id='1627'> +8.2232280e+01 </wgt>
<wgt id='1628'> +8.2142830e+01 </wgt>
<wgt id='1629'> +8.2124939e+01 </wgt>
<wgt id='1630'> +8.2292631e+01 </wgt>
<wgt id='1631'> +8.2200866e+01 </wgt>
<wgt id='1632'> +8.2279711e+01 </wgt>
<wgt id='1633'> +8.2202112e+01 </wgt>
<wgt id='1634'> +8.2278478e+01 </wgt>
<wgt id='1635'> +8.2195949e+01 </wgt>
<wgt id='1636'> +8.2262005e+01 </wgt>
<wgt id='1637'> +8.2302060e+01 </wgt>
<wgt id='1638'> +8.2227132e+01 </wgt>
<wgt id='1639'> +8.2205370e+01 </wgt>
<wgt id='1640'> +8.2255242e+01 </wgt>
<wgt id='1641'> +8.2224981e+01 </wgt>
<wgt id='1642'> +8.2200914e+01 </wgt>
<wgt id='1643'> +8.2261027e+01 </wgt>
<wgt id='1644'> +8.2243425e+01 </wgt>
<wgt id='1645'> +8.2175345e+01 </wgt>
<wgt id='1646'> +8.2207536e+01 </wgt>
<wgt id='1647'> +8.2217875e+01 </wgt>
<wgt id='1648'> +8.2182201e+01 </wgt>
<wgt id='1649'> +8.2270398e+01 </wgt>
<wgt id='1650'> +8.2177288e+01 </wgt>
<wgt id='1651'> +8.2232644e+01 </wgt>
<wgt id='1652'> +8.2189172e+01 </wgt>
<wgt id='1653'> +8.2225309e+01 </wgt>
<wgt id='1654'> +8.2224980e+01 </wgt>
<wgt id='1655'> +8.2215070e+01 </wgt>
<wgt id='1656'> +8.2202593e+01 </wgt>
<wgt id='1657'> +8.2222574e+01 </wgt>
<wgt id='1658'> +8.2219502e+01 </wgt>
<wgt id='1659'> +8.2237675e+01 </wgt>
<wgt id='1660'> +8.2199314e+01 </wgt>
<wgt id='1661'> +8.2229813e+01 </wgt>
<wgt id='1662'> +8.2199988e+01 </wgt>
<wgt id='1663'> +8.2255381e+01 </wgt>
<wgt id='1664'> +8.2219506e+01 </wgt>
<wgt id='1665'> +8.2199114e+01 </wgt>
<wgt id='1666'> +8.2229203e+01 </wgt>
<wgt id='1667'> +8.2207966e+01 </wgt>
<wgt id='1668'> +8.2210900e+01 </wgt>
<wgt id='1669'> +8.2232996e+01 </wgt>
<wgt id='1670'> +8.1024468e+01 </wgt>
<wgt id='1671'> +8.3232607e+01 </wgt>
<wgt id='1672'> +7.7228806e+01 </wgt>
<wgt id='1673'> +7.6277476e+01 </wgt>
<wgt id='1674'> +7.6362617e+01 </wgt>
<wgt id='1675'> +7.7216063e+01 </wgt>
<wgt id='1676'> +7.9526452e+01 </wgt>
<wgt id='1677'> +7.7575006e+01 </wgt>
<wgt id='1678'> +7.6813650e+01 </wgt>
<wgt id='1679'> +7.7250612e+01 </wgt>
<wgt id='1680'> +7.7379827e+01 </wgt>
<wgt id='1681'> +7.7451502e+01 </wgt>
<wgt id='1682'> +7.7196538e+01 </wgt>
<wgt id='1683'> +7.6433839e+01 </wgt>
<wgt id='1684'> +7.7607588e+01 </wgt>
<wgt id='1685'> +7.7178468e+01 </wgt>
<wgt id='1686'> +7.7139697e+01 </wgt>
<wgt id='1687'> +7.7408375e+01 </wgt>
<wgt id='1688'> +7.7431097e+01 </wgt>
<wgt id='1689'> +7.6600786e+01 </wgt>
<wgt id='1690'> +7.7269837e+01 </wgt>
<wgt id='1691'> +7.7490239e+01 </wgt>
<wgt id='1692'> +7.7662833e+01 </wgt>
<wgt id='1693'> +7.6974358e+01 </wgt>
<wgt id='1694'> +7.7022272e+01 </wgt>
<wgt id='1695'> +7.7300754e+01 </wgt>
<wgt id='1696'> +7.6908890e+01 </wgt>
<wgt id='1697'> +7.7319815e+01 </wgt>
<wgt id='1698'> +7.7177131e+01 </wgt>
<wgt id='1699'> +7.7360259e+01 </wgt>
<wgt id='1700'> +7.7026496e+01 </wgt>
<wgt id='1701'> +7.6831101e+01 </wgt>
<wgt id='1702'> +7.7309099e+01 </wgt>
<wgt id='1703'> +7.6201319e+01 </wgt>
<wgt id='1704'> +7.8360649e+01 </wgt>
<wgt id='1705'> +8.2220611e+01 </wgt>
<wgt id='1706'> +8.2487017e+01 </wgt>
<wgt id='1707'> +8.2224808e+01 </wgt>
<wgt id='1708'> +8.2233717e+01 </wgt>
<wgt id='1709'> +7.9696105e+01 </wgt>
<wgt id='1710'> +8.1756624e+01 </wgt>
<wgt id='1711'> +8.2231768e+01 </wgt>
<wgt id='1712'> +8.2131239e+01 </wgt>
<wgt id='1713'> +8.2267957e+01 </wgt>
<wgt id='1714'> +8.1801950e+01 </wgt>
<wgt id='1715'> +8.2246006e+01 </wgt>
<wgt id='1716'> +8.2101087e+01 </wgt>
<wgt id='1717'> +8.2205668e+01 </wgt>
<wgt id='1718'> +8.2339709e+01 </wgt>
<wgt id='1719'> +8.2175963e+01 </wgt>
<wgt id='1720'> +8.2232686e+01 </wgt>
<wgt id='1721'> +8.2181885e+01 </wgt>
<wgt id='1722'> +8.2002732e+01 </wgt>
<wgt id='1723'> +8.2277803e+01 </wgt>
<wgt id='1724'> +8.2277313e+01 </wgt>
<wgt id='1725'> +8.1137982e+01 </wgt>
<wgt id='1726'> +8.2288406e+01 </wgt>
<wgt id='1727'> +8.2527304e+01 </wgt>
<wgt id='1728'> +8.2243811e+01 </wgt>
<wgt id='1729'> +8.2263577e+01 </wgt>
<wgt id='1730'> +8.2272004e+01 </wgt>
<wgt id='1731'> +8.2327009e+01 </wgt>
<wgt id='1732'> +8.2321906e+01 </wgt>
<wgt id='1733'> +8.2295356e+01 </wgt>
<wgt id='1734'> +8.2205190e+01 </wgt>
<wgt id='1735'> +8.2472180e+01 </wgt>
<wgt id='1736'> +8.1024468e+01 </wgt>
<wgt id='1737'> +8.3232607e+01 </wgt>
<wgt id='1738'> +8.8550645e+01 </wgt>
<wgt id='1739'> +8.8738464e+01 </wgt>
<wgt id='1740'> +8.8364132e+01 </wgt>
<wgt id='1741'> +8.8543136e+01 </wgt>
<wgt id='1742'> +8.8557800e+01 </wgt>
<wgt id='1743'> +8.8570226e+01 </wgt>
<wgt id='1744'> +8.8530184e+01 </wgt>
<wgt id='1745'> +8.8200409e+01 </wgt>
<wgt id='1746'> +8.8889151e+01 </wgt>
<wgt id='1747'> +8.8949516e+01 </wgt>
<wgt id='1748'> +8.8150152e+01 </wgt>
<wgt id='1749'> +8.8770344e+01 </wgt>
<wgt id='1750'> +8.8276712e+01 </wgt>
<wgt id='1751'> +8.8325972e+01 </wgt>
<wgt id='1752'> +8.8767960e+01 </wgt>
<wgt id='1753'> +8.8388416e+01 </wgt>
<wgt id='1754'> +8.8856523e+01 </wgt>
<wgt id='1755'> +8.8291414e+01 </wgt>
<wgt id='1756'> +8.8644304e+01 </wgt>
<wgt id='1757'> +8.8501438e+01 </wgt>
<wgt id='1758'> +8.8658565e+01 </wgt>
<wgt id='1759'> +8.8887284e+01 </wgt>
<wgt id='1760'> +8.8126233e+01 </wgt>
<wgt id='1761'> +8.7983621e+01 </wgt>
<wgt id='1762'> +8.8806007e+01 </wgt>
<wgt id='1763'> +8.9116637e+01 </wgt>
<wgt id='1764'> +8.8106590e+01 </wgt>
<wgt id='1765'> +8.8021519e+01 </wgt>
<wgt id='1766'> +8.8941399e+01 </wgt>
<wgt id='1767'> +8.8550645e+01 </wgt>
<wgt id='1768'> +8.9549667e+01 </wgt>
<wgt id='1769'> +8.7331032e+01 </wgt>
<wgt id='1770'> +8.9694588e+01 </wgt>
<wgt id='1771'> +8.7714281e+01 </wgt>
<wgt id='1772'> +8.9121887e+01 </wgt>
<wgt id='1773'> +8.8159943e+01 </wgt>
<wgt id='1774'> +8.8396346e+01 </wgt>
<wgt id='1775'> +8.8716202e+01 </wgt>
<wgt id='1776'> +8.7742539e+01 </wgt>
<wgt id='1777'> +8.9378390e+01 </wgt>
<wgt id='1778'> +8.8507141e+01 </wgt>
<wgt id='1779'> +8.9430679e+01 </wgt>
<wgt id='1780'> +8.7209908e+01 </wgt>
<wgt id='1781'> +9.2103176e+01 </wgt>
<wgt id='1782'> +9.2316531e+01 </wgt>
<wgt id='1783'> +9.1930888e+01 </wgt>
<wgt id='1784'> +9.2110644e+01 </wgt>
<wgt id='1785'> +9.2135562e+01 </wgt>
<wgt id='1786'> +9.2155340e+01 </wgt>
<wgt id='1787'> +9.2090262e+01 </wgt>
<wgt id='1788'> +9.1706493e+01 </wgt>
<wgt id='1789'> +9.2520905e+01 </wgt>
<wgt id='1790'> +9.2457430e+01 </wgt>
<wgt id='1791'> +9.1778043e+01 </wgt>
<wgt id='1792'> +9.2170525e+01 </wgt>
<wgt id='1793'> +9.2073694e+01 </wgt>
<wgt id='1794'> +9.1775743e+01 </wgt>
<wgt id='1795'> +9.2477610e+01 </wgt>
<wgt id='1796'> +9.2102153e+01 </wgt>
<wgt id='1797'> +9.2359408e+01 </wgt>
<wgt id='1798'> +9.2153712e+01 </wgt>
<wgt id='1799'> +9.2072052e+01 </wgt>
<wgt id='1800'> +9.2281238e+01 </wgt>
<wgt id='1801'> +9.1955656e+01 </wgt>
<wgt id='1802'> +9.1383740e+01 </wgt>
<wgt id='1803'> +9.2765080e+01 </wgt>
<wgt id='1804'> +9.2318678e+01 </wgt>
<wgt id='1805'> +9.1950402e+01 </wgt>
<wgt id='1806'> +9.1663446e+01 </wgt>
<wgt id='1807'> +9.2393841e+01 </wgt>
<wgt id='1808'> +9.1763698e+01 </wgt>
<wgt id='1809'> +9.2339278e+01 </wgt>
<wgt id='1810'> +9.2101224e+01 </wgt>
<wgt id='1811'> +9.3186122e+01 </wgt>
<wgt id='1812'> +9.0627750e+01 </wgt>
<wgt id='1813'> +9.3310831e+01 </wgt>
<wgt id='1814'> +9.1183501e+01 </wgt>
<wgt id='1815'> +9.2304852e+01 </wgt>
<wgt id='1816'> +9.1248541e+01 </wgt>
<wgt id='1817'> +9.1952966e+01 </wgt>
<wgt id='1818'> +9.2509145e+01 </wgt>
<wgt id='1819'> +9.0333752e+01 </wgt>
<wgt id='1820'> +9.2836499e+01 </wgt>
<wgt id='1821'> +9.0796786e+01 </wgt>
<wgt id='1822'> +9.3877410e+01 </wgt>
<wgt id='1823'> +9.0402596e+01 </wgt>
<wgt id='1824'> +7.9518824e+01 </wgt>
<wgt id='1825'> +7.9493805e+01 </wgt>
<wgt id='1826'> +7.9468746e+01 </wgt>
<wgt id='1827'> +7.9443471e+01 </wgt>
<wgt id='1828'> +7.9418495e+01 </wgt>
<wgt id='1829'> +7.9393681e+01 </wgt>
<wgt id='1830'> +7.9368744e+01 </wgt>
<wgt id='1831'> +7.9343362e+01 </wgt>
<wgt id='1832'> +7.9318373e+01 </wgt>
<wgt id='1833'> +7.9293716e+01 </wgt>
<wgt id='1834'> +7.9268170e+01 </wgt>
<wgt id='1835'> +7.9243426e+01 </wgt>
<wgt id='1836'> +7.9218612e+01 </wgt>
<wgt id='1837'> +7.9193685e+01 </wgt>
<wgt id='1838'> +7.9168425e+01 </wgt>
<wgt id='1839'> +7.9143468e+01 </wgt>
<wgt id='1840'> +7.9118666e+01 </wgt>
<wgt id='1841'> +7.9093677e+01 </wgt>
<wgt id='1842'> +7.9069020e+01 </wgt>
<wgt id='1843'> +7.9044091e+01 </wgt>
<wgt id='1844'> +7.9019066e+01 </wgt>
<wgt id='1845'> +7.8994358e+01 </wgt>
<wgt id='1846'> +7.8969187e+01 </wgt>
<wgt id='1847'> +7.8944340e+01 </wgt>
<wgt id='1848'> +7.8919394e+01 </wgt>
<wgt id='1849'> +7.8894198e+01 </wgt>
<wgt id='1850'> +7.8869177e+01 </wgt>
<wgt id='1851'> +7.8844392e+01 </wgt>
<wgt id='1852'> +7.8819594e+01 </wgt>
<wgt id='1853'> +7.8794166e+01 </wgt>
<wgt id='1854'> +7.8769443e+01 </wgt>
<wgt id='1855'> +8.1924188e+01 </wgt>
<wgt id='1856'> +8.2371202e+01 </wgt>
<wgt id='1857'> +8.1241353e+01 </wgt>
<wgt id='1858'> +8.2730277e+01 </wgt>
<wgt id='1859'> +8.2950923e+01 </wgt>
<wgt id='1860'> +8.2803531e+01 </wgt>
<wgt id='1861'> +8.2529228e+01 </wgt>
<wgt id='1862'> +8.2067391e+01 </wgt>
<wgt id='1863'> +8.2064582e+01 </wgt>
<wgt id='1864'> +8.2302209e+01 </wgt>
<wgt id='1865'> +8.2182073e+01 </wgt>
<wgt id='1866'> +8.2316472e+01 </wgt>
<wgt id='1867'> +8.1496043e+01 </wgt>
<wgt id='1868'> +8.2279211e+01 </wgt>
<wgt id='1869'> +8.1261255e+01 </wgt>
<wgt id='1870'> +8.1462757e+01 </wgt>
<wgt id='1871'> +8.1572005e+01 </wgt>
<wgt id='1872'> +8.2213269e+01 </wgt>
<wgt id='1873'> +8.2177206e+01 </wgt>
<wgt id='1874'> +8.0639127e+01 </wgt>
<wgt id='1875'> +8.2226918e+01 </wgt>
<wgt id='1876'> +8.2253918e+01 </wgt>
<wgt id='1877'> +8.1832084e+01 </wgt>
<wgt id='1878'> +8.2149399e+01 </wgt>
<wgt id='1879'> +8.2340234e+01 </wgt>
<wgt id='1880'> +8.2144408e+01 </wgt>
<wgt id='1881'> +8.1733640e+01 </wgt>
<wgt id='1882'> +8.1884617e+01 </wgt>
<wgt id='1883'> +8.2234582e+01 </wgt>
<wgt id='1884'> +8.2213537e+01 </wgt>
<wgt id='1885'> +8.2227000e+01 </wgt>
<wgt id='1886'> +8.2282127e+01 </wgt>
<wgt id='1887'> +8.2273496e+01 </wgt>
<wgt id='1888'> +8.2417936e+01 </wgt>
<wgt id='1889'> +8.2256418e+01 </wgt>
<wgt id='1890'> +8.1919534e+01 </wgt>
<wgt id='1891'> +8.2003934e+01 </wgt>
<wgt id='1892'> +8.1745164e+01 </wgt>
<wgt id='1893'> +8.1916303e+01 </wgt>
<wgt id='1894'> +8.1980639e+01 </wgt>
<wgt id='1895'> +8.1956295e+01 </wgt>
<wgt id='1896'> +8.2073118e+01 </wgt>
<wgt id='1897'> +8.2033024e+01 </wgt>
<wgt id='1898'> +8.1761997e+01 </wgt>
<wgt id='1899'> +8.1881636e+01 </wgt>
<wgt id='1900'> +8.1757164e+01 </wgt>
<wgt id='1901'> +8.1901238e+01 </wgt>
<wgt id='1902'> +8.1952015e+01 </wgt>
<wgt id='1903'> +8.2067642e+01 </wgt>
<wgt id='1904'> +8.1929308e+01 </wgt>
<wgt id='1905'> +8.1986224e+01 </wgt>
<wgt id='1906'> +8.1856551e+01 </wgt>
<wgt id='1907'> +8.1755747e+01 </wgt>
<wgt id='1908'> +8.2050198e+01 </wgt>
<wgt id='1909'> +8.1879924e+01 </wgt>
<wgt id='1910'> +8.2039129e+01 </wgt>
<wgt id='1911'> +8.2014242e+01 </wgt>
<wgt id='1912'> +8.1902073e+01 </wgt>
<wgt id='1913'> +8.1941646e+01 </wgt>
<wgt id='1914'> +8.1850409e+01 </wgt>
<wgt id='1915'> +8.1832692e+01 </wgt>
<wgt id='1916'> +8.1995946e+01 </wgt>
<wgt id='1917'> +8.1903154e+01 </wgt>
<wgt id='1918'> +8.1978988e+01 </wgt>
<wgt id='1919'> +8.1907330e+01 </wgt>
<wgt id='1920'> +8.1980707e+01 </wgt>
<wgt id='1921'> +8.1897532e+01 </wgt>
<wgt id='1922'> +8.1960737e+01 </wgt>
<wgt id='1923'> +8.2004882e+01 </wgt>
<wgt id='1924'> +8.1926178e+01 </wgt>
<wgt id='1925'> +8.1907439e+01 </wgt>
<wgt id='1926'> +8.1959425e+01 </wgt>
<wgt id='1927'> +8.1925721e+01 </wgt>
<wgt id='1928'> +8.1901328e+01 </wgt>
<wgt id='1929'> +8.1963153e+01 </wgt>
<wgt id='1930'> +8.1946085e+01 </wgt>
<wgt id='1931'> +8.1883455e+01 </wgt>
<wgt id='1932'> +8.1911454e+01 </wgt>
<wgt id='1933'> +8.1923360e+01 </wgt>
<wgt id='1934'> +8.1885275e+01 </wgt>
<wgt id='1935'> +8.1968368e+01 </wgt>
<wgt id='1936'> +8.1884967e+01 </wgt>
<wgt id='1937'> +8.1936760e+01 </wgt>
<wgt id='1938'> +8.1891538e+01 </wgt>
<wgt id='1939'> +8.1925684e+01 </wgt>
<wgt id='1940'> +8.1928354e+01 </wgt>
<wgt id='1941'> +8.1922343e+01 </wgt>
<wgt id='1942'> +8.1903101e+01 </wgt>
<wgt id='1943'> +8.1923400e+01 </wgt>
<wgt id='1944'> +8.1919791e+01 </wgt>
<wgt id='1945'> +8.1939278e+01 </wgt>
<wgt id='1946'> +8.1899350e+01 </wgt>
<wgt id='1947'> +8.1930400e+01 </wgt>
<wgt id='1948'> +8.1904452e+01 </wgt>
<wgt id='1949'> +8.1954154e+01 </wgt>
<wgt id='1950'> +8.1921986e+01 </wgt>
<wgt id='1951'> +8.1903515e+01 </wgt>
<wgt id='1952'> +8.1932708e+01 </wgt>
<wgt id='1953'> +8.1909270e+01 </wgt>
<wgt id='1954'> +8.1914989e+01 </wgt>
<wgt id='1955'> +8.1936773e+01 </wgt>
<wgt id='1956'> +8.1924000e+01 </wgt>
<wgt id='1957'> +8.1925137e+01 </wgt>
<wgt id='1958'> +8.1924358e+01 </wgt>
<wgt id='1959'> +8.1924405e+01 </wgt>
<wgt id='1960'> +8.1924721e+01 </wgt>
<wgt id='1961'> +8.1924261e+01 </wgt>
<wgt id='1962'> +8.1925235e+01 </wgt>
</rwgt>
</event>
<event npLO=" -1 " npNLO=" 1 ">
 8      1 +1.5146096e+02 1.68156990e+01 7.54677110e-03 1.52625660e-01
        2 -1    0    0  502    0 +0.0000000000e+00 +0.0000000000e+00 +2.9693746000e+02 2.9693746000e+02 0.0000000000e+00 0.0000e+00 9.0000e+00
       21 -1    0    0  503  501 +0.0000000000e+00 +0.0000000000e+00 -2.6360357000e+01 2.6360357000e+01 0.0000000000e+00 0.0000e+00 9.0000e+00
       23  2    1    2    0    0 +3.2378212000e+00 -1.8142796000e+01 +2.1724923000e+02 2.3901814000e+02 9.7942837000e+01 0.0000e+00 0.0000e+00
       13  1    3    3    0    0 +1.4629286000e+01 -3.0229073000e+01 +2.1968048000e+02 2.2223260000e+02 0.0000000000e+00 0.0000e+00 9.0000e+00
      -13  1    3    3    0    0 -1.1391465000e+01 +1.2086278000e+01 -2.4312504000e+00 1.6785546000e+01 0.0000000000e+00 0.0000e+00 9.0000e+00
       22  1    1    2    0    0 +1.4714382000e+01 +7.7358724000e+00 +4.6616613000e+01 4.9492074000e+01 0.0000000000e+00 0.0000e+00 9.0000e+00
        2  1    1    2  503    0 -1.1873637000e+01 +1.8260224000e+01 -1.5969700000e+00 2.1839628000e+01 0.0000000000e+00 0.0000e+00 9.0000e+00
       21  1    1    2  502  501 -6.0785665000e+00 -7.8533007000e+00 +8.3082269000e+00 1.2947970000e+01 0.0000000000e+00 0.0000e+00 9.0000e+00
#aMCatNLO 2  0  0  2  6 0.28656973E+01 0.00000000E+00 -9  7  0 0.00000000E+00 0.00000000E+00 0.00000000E+00 0.00000000E+00 0.00000000E+00
<rwgt>
<wgt id='1001'> +1.5146000e+02 </wgt>
<wgt id='1002'> +1.5146000e+02 </wgt>
<wgt id='1003'> +1.4185000e+02 </wgt>
<wgt id='1004'> +1.5237000e+02 </wgt>
<wgt id='1005'> +1.5398000e+02 </wgt>
<wgt id='1006'> +1.5125000e+02 </wgt>
<wgt id='1007'> +1.4257000e+02 </wgt>
<wgt id='1008'> +1.5003000e+02 </wgt>
<wgt id='1009'> +1.5471000e+02 </wgt>
<wgt id='1010'> +1.4916000e+02 </wgt>
<wgt id='1011'> +1.5006000e+02 </wgt>
<wgt id='1012'> +1.5163000e+02 </wgt>
<wgt id='1013'> +1.6064000e+02 </wgt>
<wgt id='1014'> +1.5238000e+02 </wgt>
<wgt id='1015'> +1.5165000e+02 </wgt>
<wgt id='1016'> +1.5378000e+02 </wgt>
<wgt id='1017'> +1.5311000e+02 </wgt>
<wgt id='1018'> +1.4928000e+02 </wgt>
<wgt id='1019'> +1.5064000e+02 </wgt>
<wgt id='1020'> +1.4490000e+02 </wgt>
<wgt id='1021'> +1.5173000e+02 </wgt>
<wgt id='1022'> +1.4551000e+02 </wgt>
<wgt id='1023'> +1.5470000e+02 </wgt>
<wgt id='1024'> +1.5174000e+02 </wgt>
<wgt id='1025'> +1.5941000e+02 </wgt>
<wgt id='1026'> +1.5244000e+02 </wgt>
<wgt id='1027'> +1.5279000e+02 </wgt>
<wgt id='1028'> +1.4835000e+02 </wgt>
<wgt id='1029'> +1.4682000e+02 </wgt>
<wgt id='1030'> +1.5306000e+02 </wgt>
<wgt id='1031'> +1.4870000e+02 </wgt>
<wgt id='1032'> +1.5004000e+02 </wgt>
<wgt id='1033'> +1.5175000e+02 </wgt>
<wgt id='1034'> +1.5213000e+02 </wgt>
<wgt id='1035'> +1.5242000e+02 </wgt>
<wgt id='1036'> +1.5378000e+02 </wgt>
<wgt id='1037'> +1.5173000e+02 </wgt>
<wgt id='1038'> +1.5012000e+02 </wgt>
<wgt id='1039'> +1.5000000e+02 </wgt>
<wgt id='1040'> +1.4887000e+02 </wgt>
<wgt id='1041'> +1.4574000e+02 </wgt>
<wgt id='1042'> +1.5367000e+02 </wgt>
<wgt id='1043'> +1.5342000e+02 </wgt>
<wgt id='1044'> +1.5451000e+02 </wgt>
<wgt id='1045'> +1.5354000e+02 </wgt>
<wgt id='1046'> +1.5009000e+02 </wgt>
<wgt id='1047'> +1.5508000e+02 </wgt>
<wgt id='1048'> +1.5158000e+02 </wgt>
<wgt id='1049'> +1.4849000e+02 </wgt>
<wgt id='1050'> +1.4952000e+02 </wgt>
<wgt id='1051'> +1.4834000e+02 </wgt>
<wgt id='1052'> +1.5340000e+02 </wgt>
<wgt id='1053'> +1.5221000e+02 </wgt>
<wgt id='1054'> +1.5014000e+02 </wgt>
<wgt id='1055'> +1.5485000e+02 </wgt>
<wgt id='1056'> +1.5385000e+02 </wgt>
<wgt id='1057'> +1.5214000e+02 </wgt>
<wgt id='1058'> +1.5045000e+02 </wgt>
<wgt id='1059'> +1.5029000e+02 </wgt>
<wgt id='1060'> +1.5357000e+02 </wgt>
<wgt id='1061'> +1.5259000e+02 </wgt>
<wgt id='1062'> +1.4999000e+02 </wgt>
<wgt id='1063'> +1.4856000e+02 </wgt>
<wgt id='1064'> +1.5137000e+02 </wgt>
<wgt id='1065'> +1.5642000e+02 </wgt>
<wgt id='1066'> +1.4669000e+02 </wgt>
<wgt id='1067'> +1.5226000e+02 </wgt>
<wgt id='1068'> +1.5234000e+02 </wgt>
<wgt id='1069'> +1.5569000e+02 </wgt>
<wgt id='1070'> +1.5077000e+02 </wgt>
<wgt id='1071'> +1.5076000e+02 </wgt>
<wgt id='1072'> +1.5065000e+02 </wgt>
<wgt id='1073'> +1.5426000e+02 </wgt>
<wgt id='1074'> +1.5145000e+02 </wgt>
<wgt id='1075'> +1.4904000e+02 </wgt>
<wgt id='1076'> +1.5497000e+02 </wgt>
<wgt id='1077'> +1.5245000e+02 </wgt>
<wgt id='1078'> +1.5433000e+02 </wgt>
<wgt id='1079'> +1.5504000e+02 </wgt>
<wgt id='1080'> +1.5453000e+02 </wgt>
<wgt id='1081'> +1.4914000e+02 </wgt>
<wgt id='1082'> +1.5216000e+02 </wgt>
<wgt id='1083'> +1.5570000e+02 </wgt>
<wgt id='1084'> +1.5343000e+02 </wgt>
<wgt id='1085'> +1.4727000e+02 </wgt>
<wgt id='1086'> +1.5234000e+02 </wgt>
<wgt id='1087'> +1.4947000e+02 </wgt>
<wgt id='1088'> +1.5298000e+02 </wgt>
<wgt id='1089'> +1.5386000e+02 </wgt>
<wgt id='1090'> +1.5280000e+02 </wgt>
<wgt id='1091'> +1.5042000e+02 </wgt>
<wgt id='1092'> +1.5508000e+02 </wgt>
<wgt id='1093'> +1.4611000e+02 </wgt>
<wgt id='1094'> +1.4962000e+02 </wgt>
<wgt id='1095'> +1.4771000e+02 </wgt>
<wgt id='1096'> +1.5667000e+02 </wgt>
<wgt id='1097'> +1.4730000e+02 </wgt>
<wgt id='1098'> +1.5289000e+02 </wgt>
<wgt id='1099'> +1.5182000e+02 </wgt>
<wgt id='1100'> +1.5400000e+02 </wgt>
<wgt id='1101'> +1.5063000e+02 </wgt>
<wgt id='1102'> +1.4589000e+02 </wgt>
<wgt id='1103'> +1.4829000e+02 </wgt>
<wgt id='1104'> +1.5331000e+02 </wgt>
<wgt id='1105'> +1.5146096e+02 </wgt>
<wgt id='1106'> +5.8656841e+01 </wgt>
<wgt id='1107'> +1.0169316e+02 </wgt>
<wgt id='1108'> +8.6461088e+01 </wgt>
<wgt id='1109'> +6.6968205e+01 </wgt>
<wgt id='1110'> +1.1610254e+02 </wgt>
<wgt id='1111'> +6.2552548e+01 </wgt>
<wgt id='1112'> +4.8449909e+01 </wgt>
<wgt id='1113'> +8.3997435e+01 </wgt>
<wgt id='1114'> +8.0096900e+01 </wgt>
<wgt id='1115'> +8.1493088e+01 </wgt>
<wgt id='1116'> +7.9979475e+01 </wgt>
<wgt id='1117'> +7.8161872e+01 </wgt>
<wgt id='1118'> +7.8195660e+01 </wgt>
<wgt id='1119'> +8.0379364e+01 </wgt>
<wgt id='1120'> +7.8877357e+01 </wgt>
<wgt id='1121'> +8.1499089e+01 </wgt>
<wgt id='1122'> +8.0518024e+01 </wgt>
<wgt id='1123'> +7.8657960e+01 </wgt>
<wgt id='1124'> +7.8749156e+01 </wgt>
<wgt id='1125'> +8.0491918e+01 </wgt>
<wgt id='1126'> +7.8088277e+01 </wgt>
<wgt id='1127'> +8.0434035e+01 </wgt>
<wgt id='1128'> +8.0707265e+01 </wgt>
<wgt id='1129'> +8.0686942e+01 </wgt>
<wgt id='1130'> +8.1564533e+01 </wgt>
<wgt id='1131'> +8.0647994e+01 </wgt>
<wgt id='1132'> +8.0278981e+01 </wgt>
<wgt id='1133'> +8.1602148e+01 </wgt>
<wgt id='1134'> +7.9898019e+01 </wgt>
<wgt id='1135'> +7.8712851e+01 </wgt>
<wgt id='1136'> +8.1606407e+01 </wgt>
<wgt id='1137'> +8.0945897e+01 </wgt>
<wgt id='1138'> +8.1175755e+01 </wgt>
<wgt id='1139'> +7.9877252e+01 </wgt>
<wgt id='1140'> +8.3646629e+01 </wgt>
<wgt id='1141'> +7.9535162e+01 </wgt>
<wgt id='1142'> +7.9201098e+01 </wgt>
<wgt id='1143'> +8.1088665e+01 </wgt>
<wgt id='1144'> +7.8314603e+01 </wgt>
<wgt id='1145'> +7.9772338e+01 </wgt>
<wgt id='1146'> +7.7126351e+01 </wgt>
<wgt id='1147'> +7.9496563e+01 </wgt>
<wgt id='1148'> +7.8818381e+01 </wgt>
<wgt id='1149'> +8.1416994e+01 </wgt>
<wgt id='1150'> +7.9976284e+01 </wgt>
<wgt id='1151'> +8.2376948e+01 </wgt>
<wgt id='1152'> +7.9523681e+01 </wgt>
<wgt id='1153'> +7.9589428e+01 </wgt>
<wgt id='1154'> +8.0861194e+01 </wgt>
<wgt id='1155'> +7.9821161e+01 </wgt>
<wgt id='1156'> +7.9443231e+01 </wgt>
<wgt id='1157'> +7.9727653e+01 </wgt>
<wgt id='1158'> +7.8499180e+01 </wgt>
<wgt id='1159'> +8.0571412e+01 </wgt>
<wgt id='1160'> +8.2147440e+01 </wgt>
<wgt id='1161'> +7.9080791e+01 </wgt>
<wgt id='1162'> +8.2248353e+01 </wgt>
<wgt id='1163'> +8.0513697e+01 </wgt>
<wgt id='1164'> +8.1173516e+01 </wgt>
<wgt id='1165'> +7.8833973e+01 </wgt>
<wgt id='1166'> +8.0362615e+01 </wgt>
<wgt id='1167'> +7.9239094e+01 </wgt>
<wgt id='1168'> +8.0673853e+01 </wgt>
<wgt id='1169'> +8.2949304e+01 </wgt>
<wgt id='1170'> +7.9616858e+01 </wgt>
<wgt id='1171'> +8.2316765e+01 </wgt>
<wgt id='1172'> +8.0359110e+01 </wgt>
<wgt id='1173'> +7.9644779e+01 </wgt>
<wgt id='1174'> +8.1717682e+01 </wgt>
<wgt id='1175'> +7.9795021e+01 </wgt>
<wgt id='1176'> +8.1222443e+01 </wgt>
<wgt id='1177'> +8.2580441e+01 </wgt>
<wgt id='1178'> +7.9796541e+01 </wgt>
<wgt id='1179'> +8.1211178e+01 </wgt>
<wgt id='1180'> +7.9240495e+01 </wgt>
<wgt id='1181'> +8.0740141e+01 </wgt>
<wgt id='1182'> +8.0903680e+01 </wgt>
<wgt id='1183'> +8.0322588e+01 </wgt>
<wgt id='1184'> +7.9480994e+01 </wgt>
<wgt id='1185'> +7.9108984e+01 </wgt>
<wgt id='1186'> +8.3623096e+01 </wgt>
<wgt id='1187'> +7.6597252e+01 </wgt>
<wgt id='1188'> +7.8257984e+01 </wgt>
<wgt id='1189'> +7.9382907e+01 </wgt>
<wgt id='1190'> +8.0583455e+01 </wgt>
<wgt id='1191'> +7.9509579e+01 </wgt>
<wgt id='1192'> +7.8786583e+01 </wgt>
<wgt id='1193'> +7.9305665e+01 </wgt>
<wgt id='1194'> +8.0352786e+01 </wgt>
<wgt id='1195'> +7.8986143e+01 </wgt>
<wgt id='1196'> +8.1564533e+01 </wgt>
<wgt id='1197'> +7.8485920e+01 </wgt>
<wgt id='1198'> +7.9954718e+01 </wgt>
<wgt id='1199'> +8.0292454e+01 </wgt>
<wgt id='1200'> +7.9949114e+01 </wgt>
<wgt id='1201'> +7.9071945e+01 </wgt>
<wgt id='1202'> +7.9433648e+01 </wgt>
<wgt id='1203'> +7.7586268e+01 </wgt>
<wgt id='1204'> +7.8373403e+01 </wgt>
<wgt id='1205'> +8.0618402e+01 </wgt>
<wgt id='1206'> +7.9196622e+01 </wgt>
<wgt id='1207'> +7.9915589e+01 </wgt>
<wgt id='1208'> +8.0156830e+01 </wgt>
<wgt id='1209'> +7.9998358e+01 </wgt>
<wgt id='1210'> +7.8985323e+01 </wgt>
<wgt id='1211'> +7.9945366e+01 </wgt>
<wgt id='1212'> +8.0224504e+01 </wgt>
<wgt id='1213'> +8.1207797e+01 </wgt>
<wgt id='1214'> +8.2010925e+01 </wgt>
<wgt id='1215'> +7.6334989e+01 </wgt>
<wgt id='1216'> +8.0199960e+01 </wgt>
<wgt id='1217'> +8.0388551e+01 </wgt>
<wgt id='1218'> +7.9996932e+01 </wgt>
<wgt id='1219'> +8.0352464e+01 </wgt>
<wgt id='1220'> +8.0279150e+01 </wgt>
<wgt id='1221'> +8.0252513e+01 </wgt>
<wgt id='1222'> +8.0299651e+01 </wgt>
<wgt id='1223'> +8.0049982e+01 </wgt>
<wgt id='1224'> +7.9992019e+01 </wgt>
<wgt id='1225'> +7.9789526e+01 </wgt>
<wgt id='1226'> +7.9980099e+01 </wgt>
<wgt id='1227'> +8.0464955e+01 </wgt>
<wgt id='1228'> +8.0392849e+01 </wgt>
<wgt id='1229'> +7.9853650e+01 </wgt>
<wgt id='1230'> +8.0363272e+01 </wgt>
<wgt id='1231'> +8.0197711e+01 </wgt>
<wgt id='1232'> +8.0251086e+01 </wgt>
<wgt id='1233'> +8.0092476e+01 </wgt>
<wgt id='1234'> +8.0184412e+01 </wgt>
<wgt id='1235'> +8.0206974e+01 </wgt>
<wgt id='1236'> +7.9956361e+01 </wgt>
<wgt id='1237'> +8.0597320e+01 </wgt>
<wgt id='1238'> +8.0300792e+01 </wgt>
<wgt id='1239'> +8.0379860e+01 </wgt>
<wgt id='1240'> +8.0356773e+01 </wgt>
<wgt id='1241'> +7.9888413e+01 </wgt>
<wgt id='1242'> +8.0169404e+01 </wgt>
<wgt id='1243'> +8.0142598e+01 </wgt>
<wgt id='1244'> +8.0150954e+01 </wgt>
<wgt id='1245'> +8.0664525e+01 </wgt>
<wgt id='1246'> +8.0246873e+01 </wgt>
<wgt id='1247'> +7.9748731e+01 </wgt>
<wgt id='1248'> +8.0329523e+01 </wgt>
<wgt id='1249'> +8.0189191e+01 </wgt>
<wgt id='1250'> +8.0224143e+01 </wgt>
<wgt id='1251'> +8.0196455e+01 </wgt>
<wgt id='1252'> +8.0227361e+01 </wgt>
<wgt id='1253'> +8.0097988e+01 </wgt>
<wgt id='1254'> +8.0202646e+01 </wgt>
<wgt id='1255'> +8.0170602e+01 </wgt>
<wgt id='1256'> +8.0193035e+01 </wgt>
<wgt id='1257'> +8.0074932e+01 </wgt>
<wgt id='1258'> +8.0281727e+01 </wgt>
<wgt id='1259'> +8.0174123e+01 </wgt>
<wgt id='1260'> +8.0186337e+01 </wgt>
<wgt id='1261'> +8.0264902e+01 </wgt>
<wgt id='1262'> +8.0100868e+01 </wgt>
<wgt id='1263'> +8.0143619e+01 </wgt>
<wgt id='1264'> +8.0329797e+01 </wgt>
<wgt id='1265'> +8.0348596e+01 </wgt>
<wgt id='1266'> +8.0167459e+01 </wgt>
<wgt id='1267'> +8.0153647e+01 </wgt>
<wgt id='1268'> +8.0167411e+01 </wgt>
<wgt id='1269'> +8.0091331e+01 </wgt>
<wgt id='1270'> +8.0239568e+01 </wgt>
<wgt id='1271'> +8.0255218e+01 </wgt>
<wgt id='1272'> +8.0254971e+01 </wgt>
<wgt id='1273'> +8.0161164e+01 </wgt>
<wgt id='1274'> +8.0047162e+01 </wgt>
<wgt id='1275'> +8.0170055e+01 </wgt>
<wgt id='1276'> +8.0267775e+01 </wgt>
<wgt id='1277'> +8.0261299e+01 </wgt>
<wgt id='1278'> +8.0187083e+01 </wgt>
<wgt id='1279'> +8.0264969e+01 </wgt>
<wgt id='1280'> +8.0198318e+01 </wgt>
<wgt id='1281'> +8.0285024e+01 </wgt>
<wgt id='1282'> +8.0101557e+01 </wgt>
<wgt id='1283'> +8.0101599e+01 </wgt>
<wgt id='1284'> +8.0240775e+01 </wgt>
<wgt id='1285'> +8.0071836e+01 </wgt>
<wgt id='1286'> +8.0288366e+01 </wgt>
<wgt id='1287'> +8.0261727e+01 </wgt>
<wgt id='1288'> +8.0299766e+01 </wgt>
<wgt id='1289'> +8.0197300e+01 </wgt>
<wgt id='1290'> +8.0201784e+01 </wgt>
<wgt id='1291'> +8.0079876e+01 </wgt>
<wgt id='1292'> +8.0165910e+01 </wgt>
<wgt id='1293'> +8.0267401e+01 </wgt>
<wgt id='1294'> +8.0196057e+01 </wgt>
<wgt id='1295'> +8.0145836e+01 </wgt>
<wgt id='1296'> +8.0216044e+01 </wgt>
<wgt id='1297'> +8.0259006e+01 </wgt>
<wgt id='1298'> +8.0232028e+01 </wgt>
<wgt id='1299'> +8.0287961e+01 </wgt>
<wgt id='1300'> +8.0167126e+01 </wgt>
<wgt id='1301'> +8.0229375e+01 </wgt>
<wgt id='1302'> +8.0176854e+01 </wgt>
<wgt id='1303'> +8.0196232e+01 </wgt>
<wgt id='1304'> +8.0168019e+01 </wgt>
<wgt id='1305'> +8.0148673e+01 </wgt>
<wgt id='1306'> +8.0202763e+01 </wgt>
<wgt id='1307'> +8.0173598e+01 </wgt>
<wgt id='1308'> +8.0173737e+01 </wgt>
<wgt id='1309'> +8.0217776e+01 </wgt>
<wgt id='1310'> +8.0249786e+01 </wgt>
<wgt id='1311'> +8.0237585e+01 </wgt>
<wgt id='1312'> +8.0219960e+01 </wgt>
<wgt id='1313'> +8.0223356e+01 </wgt>
<wgt id='1314'> +8.0168308e+01 </wgt>
<wgt id='1315'> +8.0267272e+01 </wgt>
<wgt id='1316'> +8.0136831e+01 </wgt>
<wgt id='1317'> +7.7903279e+01 </wgt>
<wgt id='1318'> +8.2775203e+01 </wgt>
<wgt id='1319'> +8.9512094e+01 </wgt>
<wgt id='1320'> +8.0220062e+01 </wgt>
<wgt id='1321'> +8.0161752e+01 </wgt>
<wgt id='1322'> +8.1069893e+01 </wgt>
<wgt id='1323'> +8.0895269e+01 </wgt>
<wgt id='1324'> +8.0517605e+01 </wgt>
<wgt id='1325'> +8.0695765e+01 </wgt>
<wgt id='1326'> +8.0687989e+01 </wgt>
<wgt id='1327'> +7.9213609e+01 </wgt>
<wgt id='1328'> +8.1624297e+01 </wgt>
<wgt id='1329'> +7.8452354e+01 </wgt>
<wgt id='1330'> +8.2476585e+01 </wgt>
<wgt id='1331'> +8.1219952e+01 </wgt>
<wgt id='1332'> +7.9796952e+01 </wgt>
<wgt id='1333'> +7.7801225e+01 </wgt>
<wgt id='1334'> +8.1370858e+01 </wgt>
<wgt id='1335'> +8.0277373e+01 </wgt>
<wgt id='1336'> +7.9740650e+01 </wgt>
<wgt id='1337'> +8.1028416e+01 </wgt>
<wgt id='1338'> +7.9298110e+01 </wgt>
<wgt id='1339'> +8.0994019e+01 </wgt>
<wgt id='1340'> +7.9321583e+01 </wgt>
<wgt id='1341'> +8.0252942e+01 </wgt>
<wgt id='1342'> +8.0074235e+01 </wgt>
<wgt id='1343'> +8.0582452e+01 </wgt>
<wgt id='1344'> +7.9799260e+01 </wgt>
<wgt id='1345'> +7.8189985e+01 </wgt>
<wgt id='1346'> +8.2102828e+01 </wgt>
<wgt id='1347'> +7.9718611e+01 </wgt>
<wgt id='1348'> +8.0890055e+01 </wgt>
<wgt id='1349'> +7.9394005e+01 </wgt>
<wgt id='1350'> +8.0504389e+01 </wgt>
<wgt id='1351'> +7.9894288e+01 </wgt>
<wgt id='1352'> +8.0636767e+01 </wgt>
<wgt id='1353'> +8.0613697e+01 </wgt>
<wgt id='1354'> +7.9369415e+01 </wgt>
<wgt id='1355'> +8.1115464e+01 </wgt>
<wgt id='1356'> +7.9407170e+01 </wgt>
<wgt id='1357'> +8.0499650e+01 </wgt>
<wgt id='1358'> +7.9548338e+01 </wgt>
<wgt id='1359'> +7.9567711e+01 </wgt>
<wgt id='1360'> +8.0369448e+01 </wgt>
<wgt id='1361'> +8.0968034e+01 </wgt>
<wgt id='1362'> +7.9507268e+01 </wgt>
<wgt id='1363'> +8.0414905e+01 </wgt>
<wgt id='1364'> +7.9468624e+01 </wgt>
<wgt id='1365'> +7.9814748e+01 </wgt>
<wgt id='1366'> +7.9217349e+01 </wgt>
<wgt id='1367'> +7.9924520e+01 </wgt>
<wgt id='1368'> +8.0515268e+01 </wgt>
<wgt id='1369'> +8.0742106e+01 </wgt>
<wgt id='1370'> +7.9121991e+01 </wgt>
<wgt id='1371'> +7.9564746e+01 </wgt>
<wgt id='1372'> +8.0263209e+01 </wgt>
<wgt id='1373'> +7.8771775e+01 </wgt>
<wgt id='1374'> +7.9726581e+01 </wgt>
<wgt id='1375'> +7.9671598e+01 </wgt>
<wgt id='1376'> +8.0860003e+01 </wgt>
<wgt id='1377'> +7.7675913e+01 </wgt>
<wgt id='1378'> +8.2613845e+01 </wgt>
<wgt id='1379'> +7.7870614e+01 </wgt>
<wgt id='1380'> +7.5784034e+01 </wgt>
<wgt id='1381'> +7.9830043e+01 </wgt>
<wgt id='1382'> +8.4912828e+01 </wgt>
<wgt id='1383'> +7.8665878e+01 </wgt>
<wgt id='1384'> +7.8096172e+01 </wgt>
<wgt id='1385'> +1.0688270e+02 </wgt>
<wgt id='1386'> +1.0723422e+02 </wgt>
<wgt id='1387'> +1.0649372e+02 </wgt>
<wgt id='1388'> +1.0666851e+02 </wgt>
<wgt id='1389'> +1.0723521e+02 </wgt>
<wgt id='1390'> +1.0713400e+02 </wgt>
<wgt id='1391'> +1.0658542e+02 </wgt>
<wgt id='1392'> +1.0770924e+02 </wgt>
<wgt id='1393'> +1.0630599e+02 </wgt>
<wgt id='1394'> +1.0658384e+02 </wgt>
<wgt id='1395'> +1.0724228e+02 </wgt>
<wgt id='1396'> +1.0620287e+02 </wgt>
<wgt id='1397'> +1.0723621e+02 </wgt>
<wgt id='1398'> +1.0653043e+02 </wgt>
<wgt id='1399'> +1.0713714e+02 </wgt>
<wgt id='1400'> +1.0749520e+02 </wgt>
<wgt id='1401'> +1.0640803e+02 </wgt>
<wgt id='1402'> +1.0721412e+02 </wgt>
<wgt id='1403'> +1.0673520e+02 </wgt>
<wgt id='1404'> +1.0550956e+02 </wgt>
<wgt id='1405'> +1.0754935e+02 </wgt>
<wgt id='1406'> +1.0654167e+02 </wgt>
<wgt id='1407'> +1.0749072e+02 </wgt>
<wgt id='1408'> +1.0705178e+02 </wgt>
<wgt id='1409'> +1.0653545e+02 </wgt>
<wgt id='1410'> +1.0695132e+02 </wgt>
<wgt id='1411'> +1.0666759e+02 </wgt>
<wgt id='1412'> +1.0751183e+02 </wgt>
<wgt id='1413'> +1.0593573e+02 </wgt>
<wgt id='1414'> +1.0758923e+02 </wgt>
<wgt id='1415'> +1.0641916e+02 </wgt>
<wgt id='1416'> +1.0727289e+02 </wgt>
<wgt id='1417'> +1.0676026e+02 </wgt>
<wgt id='1418'> +1.0657185e+02 </wgt>
<wgt id='1419'> +1.0755026e+02 </wgt>
<wgt id='1420'> +1.0606309e+02 </wgt>
<wgt id='1421'> +1.0721248e+02 </wgt>
<wgt id='1422'> +1.0704063e+02 </wgt>
<wgt id='1423'> +1.0673504e+02 </wgt>
<wgt id='1424'> +1.0712275e+02 </wgt>
<wgt id='1425'> +1.0627074e+02 </wgt>
<wgt id='1426'> +1.0715079e+02 </wgt>
<wgt id='1427'> +1.0689239e+02 </wgt>
<wgt id='1428'> +1.0690187e+02 </wgt>
<wgt id='1429'> +1.0616792e+02 </wgt>
<wgt id='1430'> +1.0708142e+02 </wgt>
<wgt id='1431'> +1.0706227e+02 </wgt>
<wgt id='1432'> +1.0711072e+02 </wgt>
<wgt id='1433'> +1.0708677e+02 </wgt>
<wgt id='1434'> +1.0693471e+02 </wgt>
<wgt id='1435'> +1.0743994e+02 </wgt>
<wgt id='1436'> +7.1590267e+01 </wgt>
<wgt id='1437'> +7.1602685e+01 </wgt>
<wgt id='1438'> +7.1498494e+01 </wgt>
<wgt id='1439'> +7.1588296e+01 </wgt>
<wgt id='1440'> +7.1716505e+01 </wgt>
<wgt id='1441'> +7.1813284e+01 </wgt>
<wgt id='1442'> +7.1298152e+01 </wgt>
<wgt id='1443'> +7.1731869e+01 </wgt>
<wgt id='1444'> +7.1296706e+01 </wgt>
<wgt id='1445'> +7.1138940e+01 </wgt>
<wgt id='1446'> +7.1861313e+01 </wgt>
<wgt id='1447'> +7.1644682e+01 </wgt>
<wgt id='1448'> +7.1493843e+01 </wgt>
<wgt id='1449'> +7.1819755e+01 </wgt>
<wgt id='1450'> +7.1706369e+01 </wgt>
<wgt id='1451'> +7.1657241e+01 </wgt>
<wgt id='1452'> +7.1274366e+01 </wgt>
<wgt id='1453'> +7.1568460e+01 </wgt>
<wgt id='1454'> +7.1769639e+01 </wgt>
<wgt id='1455'> +7.1297184e+01 </wgt>
<wgt id='1456'> +7.1490624e+01 </wgt>
<wgt id='1457'> +7.1567745e+01 </wgt>
<wgt id='1458'> +7.1694869e+01 </wgt>
<wgt id='1459'> +7.1647382e+01 </wgt>
<wgt id='1460'> +7.1826399e+01 </wgt>
<wgt id='1461'> +7.2088534e+01 </wgt>
<wgt id='1462'> +7.1691977e+01 </wgt>
<wgt id='1463'> +7.1689924e+01 </wgt>
<wgt id='1464'> +7.1480518e+01 </wgt>
<wgt id='1465'> +8.1176430e+01 </wgt>
<wgt id='1466'> +7.8142694e+01 </wgt>
<wgt id='1467'> +7.7922688e+01 </wgt>
<wgt id='1468'> +7.7950257e+01 </wgt>
<wgt id='1469'> +7.8584773e+01 </wgt>
<wgt id='1470'> +7.8085810e+01 </wgt>
<wgt id='1471'> +7.8201460e+01 </wgt>
<wgt id='1472'> +7.7454203e+01 </wgt>
<wgt id='1473'> +7.9339498e+01 </wgt>
<wgt id='1474'> +7.9796245e+01 </wgt>
<wgt id='1475'> +7.7451222e+01 </wgt>
<wgt id='1476'> +7.7980162e+01 </wgt>
<wgt id='1477'> +7.8223501e+01 </wgt>
<wgt id='1478'> +7.7800292e+01 </wgt>
<wgt id='1479'> +7.8524848e+01 </wgt>
<wgt id='1480'> +7.8352735e+01 </wgt>
<wgt id='1481'> +7.8022262e+01 </wgt>
<wgt id='1482'> +7.8194334e+01 </wgt>
<wgt id='1483'> +7.8013229e+01 </wgt>
<wgt id='1484'> +7.8472041e+01 </wgt>
<wgt id='1485'> +7.7984316e+01 </wgt>
<wgt id='1486'> +7.8344832e+01 </wgt>
<wgt id='1487'> +7.7792031e+01 </wgt>
<wgt id='1488'> +7.7684433e+01 </wgt>
<wgt id='1489'> +7.8440796e+01 </wgt>
<wgt id='1490'> +7.8046063e+01 </wgt>
<wgt id='1491'> +7.8016100e+01 </wgt>
<wgt id='1492'> +7.7947694e+01 </wgt>
<wgt id='1493'> +7.8111366e+01 </wgt>
<wgt id='1494'> +7.8002053e+01 </wgt>
<wgt id='1495'> +7.8018400e+01 </wgt>
<wgt id='1496'> +7.7840689e+01 </wgt>
<wgt id='1497'> +7.8238752e+01 </wgt>
<wgt id='1498'> +7.8011711e+01 </wgt>
<wgt id='1499'> +7.7546159e+01 </wgt>
<wgt id='1500'> +7.8239610e+01 </wgt>
<wgt id='1501'> +7.8260570e+01 </wgt>
<wgt id='1502'> +7.8092217e+01 </wgt>
<wgt id='1503'> +7.8005273e+01 </wgt>
<wgt id='1504'> +7.8215835e+01 </wgt>
<wgt id='1505'> +7.8349263e+01 </wgt>
<wgt id='1506'> +7.8131449e+01 </wgt>
<wgt id='1507'> +7.8290331e+01 </wgt>
<wgt id='1508'> +7.8110741e+01 </wgt>
<wgt id='1509'> +7.8125541e+01 </wgt>
<wgt id='1510'> +7.8222760e+01 </wgt>
<wgt id='1511'> +7.8208578e+01 </wgt>
<wgt id='1512'> +7.8125923e+01 </wgt>
<wgt id='1513'> +7.7867951e+01 </wgt>
<wgt id='1514'> +7.8121549e+01 </wgt>
<wgt id='1515'> +7.8105147e+01 </wgt>
<wgt id='1516'> +7.8206565e+01 </wgt>
<wgt id='1517'> +7.8092219e+01 </wgt>
<wgt id='1518'> +7.8279986e+01 </wgt>
<wgt id='1519'> +7.8293733e+01 </wgt>
<wgt id='1520'> +7.8137523e+01 </wgt>
<wgt id='1521'> +7.8222735e+01 </wgt>
<wgt id='1522'> +7.8188843e+01 </wgt>
<wgt id='1523'> +7.8131969e+01 </wgt>
<wgt id='1524'> +7.8264640e+01 </wgt>
<wgt id='1525'> +7.8093853e+01 </wgt>
<wgt id='1526'> +7.8018619e+01 </wgt>
<wgt id='1527'> +7.8165612e+01 </wgt>
<wgt id='1528'> +7.8095170e+01 </wgt>
<wgt id='1529'> +7.8152649e+01 </wgt>
<wgt id='1530'> +7.8180013e+01 </wgt>
<wgt id='1531'> +7.8108626e+01 </wgt>
<wgt id='1532'> +7.8132546e+01 </wgt>
<wgt id='1533'> +7.8169230e+01 </wgt>
<wgt id='1534'> +7.8158683e+01 </wgt>
<wgt id='1535'> +7.8149514e+01 </wgt>
<wgt id='1536'> +7.8063456e+01 </wgt>
<wgt id='1537'> +7.8121723e+01 </wgt>
<wgt id='1538'> +7.8171401e+01 </wgt>
<wgt id='1539'> +7.8117026e+01 </wgt>
<wgt id='1540'> +7.8151792e+01 </wgt>
<wgt id='1541'> +7.8074801e+01 </wgt>
<wgt id='1542'> +7.8176452e+01 </wgt>
<wgt id='1543'> +7.8178773e+01 </wgt>
<wgt id='1544'> +7.8169515e+01 </wgt>
<wgt id='1545'> +7.8157706e+01 </wgt>
<wgt id='1546'> +7.8149694e+01 </wgt>
<wgt id='1547'> +7.8178452e+01 </wgt>
<wgt id='1548'> +7.8112354e+01 </wgt>
<wgt id='1549'> +7.8145152e+01 </wgt>
<wgt id='1550'> +7.8161826e+01 </wgt>
<wgt id='1551'> +7.8091434e+01 </wgt>
<wgt id='1552'> +7.8138724e+01 </wgt>
<wgt id='1553'> +7.8120016e+01 </wgt>
<wgt id='1554'> +7.8140758e+01 </wgt>
<wgt id='1555'> +7.8126758e+01 </wgt>
<wgt id='1556'> +7.8141952e+01 </wgt>
<wgt id='1557'> +7.8143720e+01 </wgt>
<wgt id='1558'> +7.8137594e+01 </wgt>
<wgt id='1559'> +7.8128004e+01 </wgt>
<wgt id='1560'> +7.8152770e+01 </wgt>
<wgt id='1561'> +7.8178354e+01 </wgt>
<wgt id='1562'> +7.8098649e+01 </wgt>
<wgt id='1563'> +7.8160889e+01 </wgt>
<wgt id='1564'> +7.8159489e+01 </wgt>
<wgt id='1565'> +7.8135130e+01 </wgt>
<wgt id='1566'> +7.8147966e+01 </wgt>
<wgt id='1567'> +7.6145109e+01 </wgt>
<wgt id='1568'> +8.0096713e+01 </wgt>
<wgt id='1569'> +7.7463895e+01 </wgt>
<wgt id='1570'> +7.7881495e+01 </wgt>
<wgt id='1571'> +7.7302973e+01 </wgt>
<wgt id='1572'> +7.7512118e+01 </wgt>
<wgt id='1573'> +7.7665668e+01 </wgt>
<wgt id='1574'> +7.7574514e+01 </wgt>
<wgt id='1575'> +7.7624142e+01 </wgt>
<wgt id='1576'> +7.8073934e+01 </wgt>
<wgt id='1577'> +7.7852240e+01 </wgt>
<wgt id='1578'> +7.7417380e+01 </wgt>
<wgt id='1579'> +7.7813339e+01 </wgt>
<wgt id='1580'> +7.7438145e+01 </wgt>
<wgt id='1581'> +7.6227835e+01 </wgt>
<wgt id='1582'> +7.7156684e+01 </wgt>
<wgt id='1583'> +7.6883669e+01 </wgt>
<wgt id='1584'> +7.7445145e+01 </wgt>
<wgt id='1585'> +7.7115937e+01 </wgt>
<wgt id='1586'> +7.7541058e+01 </wgt>
<wgt id='1587'> +7.7596394e+01 </wgt>
<wgt id='1588'> +7.6761070e+01 </wgt>
<wgt id='1589'> +7.7656116e+01 </wgt>
<wgt id='1590'> +7.7633898e+01 </wgt>
<wgt id='1591'> +7.7294422e+01 </wgt>
<wgt id='1592'> +7.7516219e+01 </wgt>
<wgt id='1593'> +7.7734060e+01 </wgt>
<wgt id='1594'> +7.7613874e+01 </wgt>
<wgt id='1595'> +7.7366881e+01 </wgt>
<wgt id='1596'> +7.7310692e+01 </wgt>
<wgt id='1597'> +7.7536706e+01 </wgt>
<wgt id='1598'> +7.7682747e+01 </wgt>
<wgt id='1599'> +7.7703855e+01 </wgt>
<wgt id='1600'> +7.7659456e+01 </wgt>
<wgt id='1601'> +7.7721120e+01 </wgt>
<wgt id='1602'> +7.8078113e+01 </wgt>
<wgt id='1603'> +7.7646682e+01 </wgt>
<wgt id='1604'> +7.7569889e+01 </wgt>
<wgt id='1605'> +7.7439953e+01 </wgt>
<wgt id='1606'> +7.7260165e+01 </wgt>
<wgt id='1607'> +7.7366837e+01 </wgt>
<wgt id='1608'> +7.7589467e+01 </wgt>
<wgt id='1609'> +7.7458544e+01 </wgt>
<wgt id='1610'> +7.7601060e+01 </wgt>
<wgt id='1611'> +7.7498599e+01 </wgt>
<wgt id='1612'> +7.7353589e+01 </wgt>
<wgt id='1613'> +7.7308966e+01 </wgt>
<wgt id='1614'> +7.7314027e+01 </wgt>
<wgt id='1615'> +7.7310417e+01 </wgt>
<wgt id='1616'> +7.7360763e+01 </wgt>
<wgt id='1617'> +7.7524902e+01 </wgt>
<wgt id='1618'> +7.7511786e+01 </wgt>
<wgt id='1619'> +7.7516447e+01 </wgt>
<wgt id='1620'> +7.7362624e+01 </wgt>
<wgt id='1621'> +7.7320898e+01 </wgt>
<wgt id='1622'> +7.7585678e+01 </wgt>
<wgt id='1623'> +7.7407198e+01 </wgt>
<wgt id='1624'> +7.7545211e+01 </wgt>
<wgt id='1625'> +7.7559395e+01 </wgt>
<wgt id='1626'> +7.7440791e+01 </wgt>
<wgt id='1627'> +7.7477179e+01 </wgt>
<wgt id='1628'> +7.7389373e+01 </wgt>
<wgt id='1629'> +7.7388856e+01 </wgt>
<wgt id='1630'> +7.7535263e+01 </wgt>
<wgt id='1631'> +7.7477458e+01 </wgt>
<wgt id='1632'> +7.7471564e+01 </wgt>
<wgt id='1633'> +7.7498667e+01 </wgt>
<wgt id='1634'> +7.7509703e+01 </wgt>
<wgt id='1635'> +7.7449040e+01 </wgt>
<wgt id='1636'> +7.7490593e+01 </wgt>
<wgt id='1637'> +7.7539761e+01 </wgt>
<wgt id='1638'> +7.7453548e+01 </wgt>
<wgt id='1639'> +7.7465431e+01 </wgt>
<wgt id='1640'> +7.7517565e+01 </wgt>
<wgt id='1641'> +7.7448846e+01 </wgt>
<wgt id='1642'> +7.7433973e+01 </wgt>
<wgt id='1643'> +7.7507049e+01 </wgt>
<wgt id='1644'> +7.7509934e+01 </wgt>
<wgt id='1645'> +7.7467590e+01 </wgt>
<wgt id='1646'> +7.7419133e+01 </wgt>
<wgt id='1647'> +7.7473653e+01 </wgt>
<wgt id='1648'> +7.7413830e+01 </wgt>
<wgt id='1649'> +7.7502347e+01 </wgt>
<wgt id='1650'> +7.7409995e+01 </wgt>
<wgt id='1651'> +7.7476244e+01 </wgt>
<wgt id='1652'> +7.7404573e+01 </wgt>
<wgt id='1653'> +7.7440847e+01 </wgt>
<wgt id='1654'> +7.7458587e+01 </wgt>
<wgt id='1655'> +7.7456771e+01 </wgt>
<wgt id='1656'> +7.7449697e+01 </wgt>
<wgt id='1657'> +7.7431314e+01 </wgt>
<wgt id='1658'> +7.7446468e+01 </wgt>
<wgt id='1659'> +7.7447470e+01 </wgt>
<wgt id='1660'> +7.7487080e+01 </wgt>
<wgt id='1661'> +7.7464866e+01 </wgt>
<wgt id='1662'> +7.7457858e+01 </wgt>
<wgt id='1663'> +7.7464329e+01 </wgt>
<wgt id='1664'> +7.7479784e+01 </wgt>
<wgt id='1665'> +7.7462082e+01 </wgt>
<wgt id='1666'> +7.7472228e+01 </wgt>
<wgt id='1667'> +7.7453429e+01 </wgt>
<wgt id='1668'> +7.7454427e+01 </wgt>
<wgt id='1669'> +7.7476495e+01 </wgt>
<wgt id='1670'> +7.5543277e+01 </wgt>
<wgt id='1671'> +7.9100749e+01 </wgt>
<wgt id='1672'> +7.8187754e+01 </wgt>
<wgt id='1673'> +7.7871568e+01 </wgt>
<wgt id='1674'> +7.8160651e+01 </wgt>
<wgt id='1675'> +7.8234711e+01 </wgt>
<wgt id='1676'> +8.0297467e+01 </wgt>
<wgt id='1677'> +7.9160438e+01 </wgt>
<wgt id='1678'> +7.8288247e+01 </wgt>
<wgt id='1679'> +7.8159963e+01 </wgt>
<wgt id='1680'> +7.8224931e+01 </wgt>
<wgt id='1681'> +7.8099366e+01 </wgt>
<wgt id='1682'> +7.8167304e+01 </wgt>
<wgt id='1683'> +7.8377930e+01 </wgt>
<wgt id='1684'> +7.8162227e+01 </wgt>
<wgt id='1685'> +7.8091224e+01 </wgt>
<wgt id='1686'> +7.8359085e+01 </wgt>
<wgt id='1687'> +7.8325592e+01 </wgt>
<wgt id='1688'> +7.8336510e+01 </wgt>
<wgt id='1689'> +7.7204298e+01 </wgt>
<wgt id='1690'> +7.8200782e+01 </wgt>
<wgt id='1691'> +7.8291045e+01 </wgt>
<wgt id='1692'> +7.8265903e+01 </wgt>
<wgt id='1693'> +7.8140686e+01 </wgt>
<wgt id='1694'> +7.8094957e+01 </wgt>
<wgt id='1695'> +7.8151674e+01 </wgt>
<wgt id='1696'> +7.8111991e+01 </wgt>
<wgt id='1697'> +7.8233453e+01 </wgt>
<wgt id='1698'> +7.8093638e+01 </wgt>
<wgt id='1699'> +7.8222133e+01 </wgt>
<wgt id='1700'> +7.8036752e+01 </wgt>
<wgt id='1701'> +7.8327844e+01 </wgt>
<wgt id='1702'> +7.8176895e+01 </wgt>
<wgt id='1703'> +7.6145109e+01 </wgt>
<wgt id='1704'> +8.0096713e+01 </wgt>
<wgt id='1705'> +7.7465996e+01 </wgt>
<wgt id='1706'> +7.8218119e+01 </wgt>
<wgt id='1707'> +7.7349083e+01 </wgt>
<wgt id='1708'> +7.7406453e+01 </wgt>
<wgt id='1709'> +7.6727667e+01 </wgt>
<wgt id='1710'> +7.6771046e+01 </wgt>
<wgt id='1711'> +7.7468594e+01 </wgt>
<wgt id='1712'> +7.7323617e+01 </wgt>
<wgt id='1713'> +7.7489613e+01 </wgt>
<wgt id='1714'> +7.7072568e+01 </wgt>
<wgt id='1715'> +7.8376699e+01 </wgt>
<wgt id='1716'> +7.7079763e+01 </wgt>
<wgt id='1717'> +7.7454569e+01 </wgt>
<wgt id='1718'> +7.7634196e+01 </wgt>
<wgt id='1719'> +7.7359296e+01 </wgt>
<wgt id='1720'> +7.7579975e+01 </wgt>
<wgt id='1721'> +7.7472048e+01 </wgt>
<wgt id='1722'> +7.7468156e+01 </wgt>
<wgt id='1723'> +7.7497839e+01 </wgt>
<wgt id='1724'> +7.7603951e+01 </wgt>
<wgt id='1725'> +7.6315370e+01 </wgt>
<wgt id='1726'> +7.7572489e+01 </wgt>
<wgt id='1727'> +7.7991609e+01 </wgt>
<wgt id='1728'> +7.7406616e+01 </wgt>
<wgt id='1729'> +7.7441414e+01 </wgt>
<wgt id='1730'> +7.7234367e+01 </wgt>
<wgt id='1731'> +7.7461326e+01 </wgt>
<wgt id='1732'> +7.7469225e+01 </wgt>
<wgt id='1733'> +7.7467747e+01 </wgt>
<wgt id='1734'> +7.7427713e+01 </wgt>
<wgt id='1735'> +7.7487231e+01 </wgt>
<wgt id='1736'> +7.5543277e+01 </wgt>
<wgt id='1737'> +7.9100749e+01 </wgt>
<wgt id='1738'> +8.9799883e+01 </wgt>
<wgt id='1739'> +8.9821392e+01 </wgt>
<wgt id='1740'> +8.9778215e+01 </wgt>
<wgt id='1741'> +8.9906346e+01 </wgt>
<wgt id='1742'> +8.9692973e+01 </wgt>
<wgt id='1743'> +8.9884896e+01 </wgt>
<wgt id='1744'> +8.9714198e+01 </wgt>
<wgt id='1745'> +8.9556547e+01 </wgt>
<wgt id='1746'> +9.0040492e+01 </wgt>
<wgt id='1747'> +9.0096819e+01 </wgt>
<wgt id='1748'> +8.9503143e+01 </wgt>
<wgt id='1749'> +8.9957510e+01 </wgt>
<wgt id='1750'> +8.9612634e+01 </wgt>
<wgt id='1751'> +8.9517167e+01 </wgt>
<wgt id='1752'> +9.0079292e+01 </wgt>
<wgt id='1753'> +8.9682653e+01 </wgt>
<wgt id='1754'> +8.9952741e+01 </wgt>
<wgt id='1755'> +8.9743406e+01 </wgt>
<wgt id='1756'> +8.9717416e+01 </wgt>
<wgt id='1757'> +8.9693976e+01 </wgt>
<wgt id='1758'> +8.9945265e+01 </wgt>
<wgt id='1759'> +9.0299220e+01 </wgt>
<wgt id='1760'> +8.9201137e+01 </wgt>
<wgt id='1761'> +8.9427045e+01 </wgt>
<wgt id='1762'> +8.9800846e+01 </wgt>
<wgt id='1763'> +9.0331713e+01 </wgt>
<wgt id='1764'> +8.9410050e+01 </wgt>
<wgt id='1765'> +8.9077616e+01 </wgt>
<wgt id='1766'> +9.0430431e+01 </wgt>
<wgt id='1767'> +8.9799883e+01 </wgt>
<wgt id='1768'> +8.9995456e+01 </wgt>
<wgt id='1769'> +8.9600787e+01 </wgt>
<wgt id='1770'> +9.0025541e+01 </wgt>
<wgt id='1771'> +8.9661231e+01 </wgt>
<wgt id='1772'> +9.0228720e+01 </wgt>
<wgt id='1773'> +8.9156655e+01 </wgt>
<wgt id='1774'> +8.9505288e+01 </wgt>
<wgt id='1775'> +9.0077834e+01 </wgt>
<wgt id='1776'> +8.9176409e+01 </wgt>
<wgt id='1777'> +9.0451452e+01 </wgt>
<wgt id='1778'> +8.9893315e+01 </wgt>
<wgt id='1779'> +9.0385632e+01 </wgt>
<wgt id='1780'> +8.7556313e+01 </wgt>
<wgt id='1781'> +8.5204136e+01 </wgt>
<wgt id='1782'> +8.5252304e+01 </wgt>
<wgt id='1783'> +8.5177716e+01 </wgt>
<wgt id='1784'> +8.5296759e+01 </wgt>
<wgt id='1785'> +8.5132920e+01 </wgt>
<wgt id='1786'> +8.5374921e+01 </wgt>
<wgt id='1787'> +8.5054639e+01 </wgt>
<wgt id='1788'> +8.5052286e+01 </wgt>
<wgt id='1789'> +8.5373085e+01 </wgt>
<wgt id='1790'> +8.5456004e+01 </wgt>
<wgt id='1791'> +8.4970455e+01 </wgt>
<wgt id='1792'> +8.5245526e+01 </wgt>
<wgt id='1793'> +8.5183404e+01 </wgt>
<wgt id='1794'> +8.4891955e+01 </wgt>
<wgt id='1795'> +8.5542384e+01 </wgt>
<wgt id='1796'> +8.5163099e+01 </wgt>
<wgt id='1797'> +8.5384068e+01 </wgt>
<wgt id='1798'> +8.5119027e+01 </wgt>
<wgt id='1799'> +8.5288857e+01 </wgt>
<wgt id='1800'> +8.5379065e+01 </wgt>
<wgt id='1801'> +8.5041526e+01 </wgt>
<wgt id='1802'> +8.4337669e+01 </wgt>
<wgt id='1803'> +8.5984375e+01 </wgt>
<wgt id='1804'> +8.5270580e+01 </wgt>
<wgt id='1805'> +8.5179728e+01 </wgt>
<wgt id='1806'> +8.4974819e+01 </wgt>
<wgt id='1807'> +8.5263334e+01 </wgt>
<wgt id='1808'> +8.5019871e+01 </wgt>
<wgt id='1809'> +8.5330968e+01 </wgt>
<wgt id='1810'> +8.5075210e+01 </wgt>
<wgt id='1811'> +8.5254129e+01 </wgt>
<wgt id='1812'> +8.4714454e+01 </wgt>
<wgt id='1813'> +8.5271029e+01 </wgt>
<wgt id='1814'> +8.4944512e+01 </wgt>
<wgt id='1815'> +8.4862287e+01 </wgt>
<wgt id='1816'> +8.5171527e+01 </wgt>
<wgt id='1817'> +8.4835329e+01 </wgt>
<wgt id='1818'> +8.5510511e+01 </wgt>
<wgt id='1819'> +8.3925863e+01 </wgt>
<wgt id='1820'> +8.5607586e+01 </wgt>
<wgt id='1821'> +8.4255382e+01 </wgt>
<wgt id='1822'> +8.6324176e+01 </wgt>
<wgt id='1823'> +8.3504757e+01 </wgt>
<wgt id='1824'> +7.9808268e+01 </wgt>
<wgt id='1825'> +7.9790911e+01 </wgt>
<wgt id='1826'> +7.9774176e+01 </wgt>
<wgt id='1827'> +7.9756924e+01 </wgt>
<wgt id='1828'> +7.9739572e+01 </wgt>
<wgt id='1829'> +7.9722562e+01 </wgt>
<wgt id='1830'> +7.9705159e+01 </wgt>
<wgt id='1831'> +7.9688156e+01 </wgt>
<wgt id='1832'> +7.9671234e+01 </wgt>
<wgt id='1833'> +7.9653705e+01 </wgt>
<wgt id='1834'> +7.9636903e+01 </wgt>
<wgt id='1835'> +7.9619980e+01 </wgt>
<wgt id='1836'> +7.9602680e+01 </wgt>
<wgt id='1837'> +7.9585504e+01 </wgt>
<wgt id='1838'> +7.9568216e+01 </wgt>
<wgt id='1839'> +7.9551259e+01 </wgt>
<wgt id='1840'> +7.9533947e+01 </wgt>
<wgt id='1841'> +7.9516988e+01 </wgt>
<wgt id='1842'> +7.9500033e+01 </wgt>
<wgt id='1843'> +7.9482564e+01 </wgt>
<wgt id='1844'> +7.9465669e+01 </wgt>
<wgt id='1845'> +7.9448674e+01 </wgt>
<wgt id='1846'> +7.9431254e+01 </wgt>
<wgt id='1847'> +7.9414184e+01 </wgt>
<wgt id='1848'> +7.9396867e+01 </wgt>
<wgt id='1849'> +7.9380178e+01 </wgt>
<wgt id='1850'> +7.9363110e+01 </wgt>
<wgt id='1851'> +7.9345845e+01 </wgt>
<wgt id='1852'> +7.9328903e+01 </wgt>
<wgt id='1853'> +7.9311303e+01 </wgt>
<wgt id='1854'> +7.9294383e+01 </wgt>
<wgt id='1855'> +7.6945403e+01 </wgt>
<wgt id='1856'> +7.7359489e+01 </wgt>
<wgt id='1857'> +7.6787757e+01 </wgt>
<wgt id='1858'> +7.6990798e+01 </wgt>
<wgt id='1859'> +7.7145528e+01 </wgt>
<wgt id='1860'> +7.7055773e+01 </wgt>
<wgt id='1861'> +7.7103824e+01 </wgt>
<wgt id='1862'> +7.7551789e+01 </wgt>
<wgt id='1863'> +7.7330844e+01 </wgt>
<wgt id='1864'> +7.6898583e+01 </wgt>
<wgt id='1865'> +7.7290641e+01 </wgt>
<wgt id='1866'> +7.6921689e+01 </wgt>
<wgt id='1867'> +7.5717954e+01 </wgt>
<wgt id='1868'> +7.6638250e+01 </wgt>
<wgt id='1869'> +7.6370389e+01 </wgt>
<wgt id='1870'> +7.6927872e+01 </wgt>
<wgt id='1871'> +7.6601109e+01 </wgt>
<wgt id='1872'> +7.7021089e+01 </wgt>
<wgt id='1873'> +7.7077757e+01 </wgt>
<wgt id='1874'> +7.6248599e+01 </wgt>
<wgt id='1875'> +7.7135715e+01 </wgt>
<wgt id='1876'> +7.7112902e+01 </wgt>
<wgt id='1877'> +7.6778348e+01 </wgt>
<wgt id='1878'> +7.6994057e+01 </wgt>
<wgt id='1879'> +7.7212590e+01 </wgt>
<wgt id='1880'> +7.7096433e+01 </wgt>
<wgt id='1881'> +7.6849613e+01 </wgt>
<wgt id='1882'> +7.6792505e+01 </wgt>
<wgt id='1883'> +7.7017704e+01 </wgt>
<wgt id='1884'> +7.7163481e+01 </wgt>
<wgt id='1885'> +7.7183520e+01 </wgt>
<wgt id='1886'> +7.7138079e+01 </wgt>
<wgt id='1887'> +7.7200907e+01 </wgt>
<wgt id='1888'> +7.7555569e+01 </wgt>
<wgt id='1889'> +7.7127755e+01 </wgt>
<wgt id='1890'> +7.7050701e+01 </wgt>
<wgt id='1891'> +7.6921857e+01 </wgt>
<wgt id='1892'> +7.6742889e+01 </wgt>
<wgt id='1893'> +7.6849563e+01 </wgt>
<wgt id='1894'> +7.7069914e+01 </wgt>
<wgt id='1895'> +7.6939789e+01 </wgt>
<wgt id='1896'> +7.7082777e+01 </wgt>
<wgt id='1897'> +7.6980955e+01 </wgt>
<wgt id='1898'> +7.6834235e+01 </wgt>
<wgt id='1899'> +7.6791889e+01 </wgt>
<wgt id='1900'> +7.6797156e+01 </wgt>
<wgt id='1901'> +7.6792649e+01 </wgt>
<wgt id='1902'> +7.6843719e+01 </wgt>
<wgt id='1903'> +7.7006479e+01 </wgt>
<wgt id='1904'> +7.6992984e+01 </wgt>
<wgt id='1905'> +7.6997831e+01 </wgt>
<wgt id='1906'> +7.6845252e+01 </wgt>
<wgt id='1907'> +7.6803307e+01 </wgt>
<wgt id='1908'> +7.7065554e+01 </wgt>
<wgt id='1909'> +7.6888711e+01 </wgt>
<wgt id='1910'> +7.7025931e+01 </wgt>
<wgt id='1911'> +7.7040725e+01 </wgt>
<wgt id='1912'> +7.6922976e+01 </wgt>
<wgt id='1913'> +7.6957646e+01 </wgt>
<wgt id='1914'> +7.6870612e+01 </wgt>
<wgt id='1915'> +7.6870470e+01 </wgt>
<wgt id='1916'> +7.7016431e+01 </wgt>
<wgt id='1917'> +7.6958690e+01 </wgt>
<wgt id='1918'> +7.6953225e+01 </wgt>
<wgt id='1919'> +7.6979467e+01 </wgt>
<wgt id='1920'> +7.6990629e+01 </wgt>
<wgt id='1921'> +7.6930592e+01 </wgt>
<wgt id='1922'> +7.6972245e+01 </wgt>
<wgt id='1923'> +7.7020655e+01 </wgt>
<wgt id='1924'> +7.6935400e+01 </wgt>
<wgt id='1925'> +7.6946622e+01 </wgt>
<wgt id='1926'> +7.6999026e+01 </wgt>
<wgt id='1927'> +7.6930638e+01 </wgt>
<wgt id='1928'> +7.6915841e+01 </wgt>
<wgt id='1929'> +7.6988191e+01 </wgt>
<wgt id='1930'> +7.6991165e+01 </wgt>
<wgt id='1931'> +7.6948713e+01 </wgt>
<wgt id='1932'> +7.6900717e+01 </wgt>
<wgt id='1933'> +7.6954794e+01 </wgt>
<wgt id='1934'> +7.6895489e+01 </wgt>
<wgt id='1935'> +7.6984106e+01 </wgt>
<wgt id='1936'> +7.6891872e+01 </wgt>
<wgt id='1937'> +7.6957542e+01 </wgt>
<wgt id='1938'> +7.6886506e+01 </wgt>
<wgt id='1939'> +7.6922551e+01 </wgt>
<wgt id='1940'> +7.6939817e+01 </wgt>
<wgt id='1941'> +7.6938301e+01 </wgt>
<wgt id='1942'> +7.6930951e+01 </wgt>
<wgt id='1943'> +7.6913200e+01 </wgt>
<wgt id='1944'> +7.6928433e+01 </wgt>
<wgt id='1945'> +7.6929125e+01 </wgt>
<wgt id='1946'> +7.6967971e+01 </wgt>
<wgt id='1947'> +7.6946214e+01 </wgt>
<wgt id='1948'> +7.6939268e+01 </wgt>
<wgt id='1949'> +7.6946213e+01 </wgt>
<wgt id='1950'> +7.6961237e+01 </wgt>
<wgt id='1951'> +7.6943606e+01 </wgt>
<wgt id='1952'> +7.6953933e+01 </wgt>
<wgt id='1953'> +7.6935182e+01 </wgt>
<wgt id='1954'> +7.6935874e+01 </wgt>
<wgt id='1955'> +7.6957777e+01 </wgt>
<wgt id='1956'> +7.6944863e+01 </wgt>
<wgt id='1957'> +7.6948352e+01 </wgt>
<wgt id='1958'> +7.6945973e+01 </wgt>
<wgt id='1959'> +7.6946062e+01 </wgt>
<wgt id='1960'> +7.6947064e+01 </wgt>
<wgt id='1961'> +7.6945645e+01 </wgt>
<wgt id='1962'> +7.6948982e+01 </wgt>
</rwgt>
</event>
<event npLO=" -1 " npNLO=" 1 ">
 7      1 +1.5146096e+02 1.15408920e+01 7.54677110e-03 1.71918930e-01
        3 -1    0    0  502    0 +0.0000000000e+00 +0.0000000000e+00 +2.4323160000e+02 2.4323160000e+02 0.0000000000e+00 0.0000e+00 9.0000e+00
       -3 -1    0    0    0  501 +0.0000000000e+00 +0.0000000000e+00 -1.1337620000e+01 1.1337620000e+01 0.0000000000e+00 0.0000e+00 9.0000e+00
       23  2    1    2    0    0 +3.8730434000e+00 +1.0871602000e+01 +2.1431195000e+02 2.3353782000e+02 9.2071205000e+01 0.0000e+00 0.0000e+00
       13  1    3    3    0    0 -1.5054517000e+01 -1.0159089000e+01 +8.4319977000e+01 8.6253720000e+01 0.0000000000e+00 0.0000e+00 9.0000e+00
      -13  1    3    3    0    0 +3.2118035000e+01 +3.0888113000e+01 +5.6435430000e+01 7.1906895000e+01 0.0000000000e+00 0.0000e+00 9.0000e+00
       22  1    3    3    0    0 -1.3190475000e+01 -9.8574221000e+00 +7.3556545000e+01 7.5377203000e+01 0.0000000000e+00 0.0000e+00 9.0000e+00
       21  1    1    2  502  501 -3.8730434000e+00 -1.0871602000e+01 +1.7582030000e+01 2.1031405000e+01 0.0000000000e+00 0.0000e+00 9.0000e+00
#aMCatNLO 1  0  0  1  6 0.81921387E+01 0.00000000E+00 -9  7  0 0.00000000E+00 0.00000000E+00 0.00000000E+00 0.00000000E+00 0.00000000E+00
<rwgt>
<wgt id='1001'> +1.5146000e+02 </wgt>
<wgt id='1002'> +1.5146000e+02 </wgt>
<wgt id='1003'> +1.5411000e+02 </wgt>
<wgt id='1004'> +1.4988000e+02 </wgt>
<wgt id='1005'> +1.4775000e+02 </wgt>
<wgt id='1006'> +1.4693000e+02 </wgt>
<wgt id='1007'> +1.2307000e+02 </wgt>
<wgt id='1008'> +1.5571000e+02 </wgt>
<wgt id='1009'> +1.1491000e+02 </wgt>
<wgt id='1010'> +1.5030000e+02 </wgt>
<wgt id='1011'> +1.6082000e+02 </wgt>
<wgt id='1012'> +1.6237000e+02 </wgt>
<wgt id='1013'> +1.9697000e+02 </wgt>
<wgt id='1014'> +1.3852000e+02 </wgt>
<wgt id='1015'> +1.4433000e+02 </wgt>
<wgt id='1016'> +1.4256000e+02 </wgt>
<wgt id='1017'> +1.6264000e+02 </wgt>
<wgt id='1018'> +1.7414000e+02 </wgt>
<wgt id='1019'> +1.4942000e+02 </wgt>
<wgt id='1020'> +1.7998000e+02 </wgt>
<wgt id='1021'> +1.3744000e+02 </wgt>
<wgt id='1022'> +1.2723000e+02 </wgt>
<wgt id='1023'> +1.2198000e+02 </wgt>
<wgt id='1024'> +1.7454000e+02 </wgt>
<wgt id='1025'> +1.5798000e+02 </wgt>
<wgt id='1026'> +1.2903000e+02 </wgt>
<wgt id='1027'> +1.3819000e+02 </wgt>
<wgt id='1028'> +1.7414000e+02 </wgt>
<wgt id='1029'> +1.5149000e+02 </wgt>
<wgt id='1030'> +1.3945000e+02 </wgt>
<wgt id='1031'> +1.4037000e+02 </wgt>
<wgt id='1032'> +1.4349000e+02 </wgt>
<wgt id='1033'> +1.4938000e+02 </wgt>
<wgt id='1034'> +1.8110000e+02 </wgt>
<wgt id='1035'> +1.3432000e+02 </wgt>
<wgt id='1036'> +1.7248000e+02 </wgt>
<wgt id='1037'> +1.4913000e+02 </wgt>
<wgt id='1038'> +1.6860000e+02 </wgt>
<wgt id='1039'> +1.3877000e+02 </wgt>
<wgt id='1040'> +1.9226000e+02 </wgt>
<wgt id='1041'> +1.1836000e+02 </wgt>
<wgt id='1042'> +1.4192000e+02 </wgt>
<wgt id='1043'> +1.5111000e+02 </wgt>
<wgt id='1044'> +1.5462000e+02 </wgt>
<wgt id='1045'> +1.4441000e+02 </wgt>
<wgt id='1046'> +1.7673000e+02 </wgt>
<wgt id='1047'> +1.4081000e+02 </wgt>
<wgt id='1048'> +1.5467000e+02 </wgt>
<wgt id='1049'> +1.5540000e+02 </wgt>
<wgt id='1050'> +1.4925000e+02 </wgt>
<wgt id='1051'> +1.2946000e+02 </wgt>
<wgt id='1052'> +1.4999000e+02 </wgt>
<wgt id='1053'> +1.4483000e+02 </wgt>
<wgt id='1054'> +1.5489000e+02 </wgt>
<wgt id='1055'> +1.4365000e+02 </wgt>
<wgt id='1056'> +1.5877000e+02 </wgt>
<wgt id='1057'> +1.5783000e+02 </wgt>
<wgt id='1058'> +1.5858000e+02 </wgt>
<wgt id='1059'> +1.4023000e+02 </wgt>
<wgt id='1060'> +1.5029000e+02 </wgt>
<wgt id='1061'> +1.4598000e+02 </wgt>
<wgt id='1062'> +1.4911000e+02 </wgt>
<wgt id='1063'> +1.4641000e+02 </wgt>
<wgt id='1064'> +1.4257000e+02 </wgt>
<wgt id='1065'> +1.4564000e+02 </wgt>
<wgt id='1066'> +1.9873000e+02 </wgt>
<wgt id='1067'> +1.5519000e+02 </wgt>
<wgt id='1068'> +1.5278000e+02 </wgt>
<wgt id='1069'> +1.8171000e+02 </wgt>
<wgt id='1070'> +1.4131000e+02 </wgt>
<wgt id='1071'> +1.5092000e+02 </wgt>
<wgt id='1072'> +1.6070000e+02 </wgt>
<wgt id='1073'> +1.6549000e+02 </wgt>
<wgt id='1074'> +1.7940000e+02 </wgt>
<wgt id='1075'> +1.4152000e+02 </wgt>
<wgt id='1076'> +1.5458000e+02 </wgt>
<wgt id='1077'> +1.4290000e+02 </wgt>
<wgt id='1078'> +1.9207000e+02 </wgt>
<wgt id='1079'> +1.6973000e+02 </wgt>
<wgt id='1080'> +1.6065000e+02 </wgt>
<wgt id='1081'> +1.5673000e+02 </wgt>
<wgt id='1082'> +1.5163000e+02 </wgt>
<wgt id='1083'> +1.5718000e+02 </wgt>
<wgt id='1084'> +1.2167000e+02 </wgt>
<wgt id='1085'> +1.6008000e+02 </wgt>
<wgt id='1086'> +1.4233000e+02 </wgt>
<wgt id='1087'> +1.4424000e+02 </wgt>
<wgt id='1088'> +1.3769000e+02 </wgt>
<wgt id='1089'> +1.6336000e+02 </wgt>
<wgt id='1090'> +1.3084000e+02 </wgt>
<wgt id='1091'> +1.5031000e+02 </wgt>
<wgt id='1092'> +1.3131000e+02 </wgt>
<wgt id='1093'> +1.3208000e+02 </wgt>
<wgt id='1094'> +1.5873000e+02 </wgt>
<wgt id='1095'> +1.6056000e+02 </wgt>
<wgt id='1096'> +1.5190000e+02 </wgt>
<wgt id='1097'> +1.2943000e+02 </wgt>
<wgt id='1098'> +1.4393000e+02 </wgt>
<wgt id='1099'> +1.2519000e+02 </wgt>
<wgt id='1100'> +1.3763000e+02 </wgt>
<wgt id='1101'> +1.5693000e+02 </wgt>
<wgt id='1102'> +1.4299000e+02 </wgt>
<wgt id='1103'> +1.4284000e+02 </wgt>
<wgt id='1104'> +1.5839000e+02 </wgt>
<wgt id='1105'> +1.5146096e+02 </wgt>
<wgt id='1106'> +5.9852429e+01 </wgt>
<wgt id='1107'> +1.0047901e+02 </wgt>
<wgt id='1108'> +8.6666625e+01 </wgt>
<wgt id='1109'> +6.8538523e+01 </wgt>
<wgt id='1110'> +1.1490884e+02 </wgt>
<wgt id='1111'> +6.5870335e+01 </wgt>
<wgt id='1112'> +5.1934446e+01 </wgt>
<wgt id='1113'> +8.7631223e+01 </wgt>
<wgt id='1114'> +9.9924703e+01 </wgt>
<wgt id='1115'> +5.6881867e+01 </wgt>
<wgt id='1116'> +1.0330866e+02 </wgt>
<wgt id='1117'> +1.0027103e+02 </wgt>
<wgt id='1118'> +9.9932815e+01 </wgt>
<wgt id='1119'> +1.0539603e+02 </wgt>
<wgt id='1120'> +7.2623823e+01 </wgt>
<wgt id='1121'> +1.0577614e+02 </wgt>
<wgt id='1122'> +1.0440228e+02 </wgt>
<wgt id='1123'> +1.0128029e+02 </wgt>
<wgt id='1124'> +1.0078004e+02 </wgt>
<wgt id='1125'> +9.6676570e+01 </wgt>
<wgt id='1126'> +1.1081840e+02 </wgt>
<wgt id='1127'> +1.1553871e+02 </wgt>
<wgt id='1128'> +8.2707576e+01 </wgt>
<wgt id='1129'> +9.3662040e+01 </wgt>
<wgt id='1130'> +9.9849510e+01 </wgt>
<wgt id='1131'> +7.9144191e+01 </wgt>
<wgt id='1132'> +1.0330272e+02 </wgt>
<wgt id='1133'> +1.2072876e+02 </wgt>
<wgt id='1134'> +1.1950702e+02 </wgt>
<wgt id='1135'> +1.1603690e+02 </wgt>
<wgt id='1136'> +9.9701750e+01 </wgt>
<wgt id='1137'> +9.3864271e+01 </wgt>
<wgt id='1138'> +1.0548416e+02 </wgt>
<wgt id='1139'> +1.1839832e+02 </wgt>
<wgt id='1140'> +8.8565379e+01 </wgt>
<wgt id='1141'> +8.0499532e+01 </wgt>
<wgt id='1142'> +1.0719252e+02 </wgt>
<wgt id='1143'> +9.7693426e+01 </wgt>
<wgt id='1144'> +8.5137237e+01 </wgt>
<wgt id='1145'> +8.7554161e+01 </wgt>
<wgt id='1146'> +1.0503694e+02 </wgt>
<wgt id='1147'> +9.3280856e+01 </wgt>
<wgt id='1148'> +9.6392856e+01 </wgt>
<wgt id='1149'> +8.8528386e+01 </wgt>
<wgt id='1150'> +1.0203640e+02 </wgt>
<wgt id='1151'> +1.0107122e+02 </wgt>
<wgt id='1152'> +9.6723121e+01 </wgt>
<wgt id='1153'> +1.0839791e+02 </wgt>
<wgt id='1154'> +9.8318445e+01 </wgt>
<wgt id='1155'> +1.0792524e+02 </wgt>
<wgt id='1156'> +1.0586010e+02 </wgt>
<wgt id='1157'> +9.6889307e+01 </wgt>
<wgt id='1158'> +9.5204819e+01 </wgt>
<wgt id='1159'> +1.0033277e+02 </wgt>
<wgt id='1160'> +9.4259368e+01 </wgt>
<wgt id='1161'> +1.0863833e+02 </wgt>
<wgt id='1162'> +1.1549555e+02 </wgt>
<wgt id='1163'> +9.2163522e+01 </wgt>
<wgt id='1164'> +9.3847562e+01 </wgt>
<wgt id='1165'> +9.7119126e+01 </wgt>
<wgt id='1166'> +1.1300066e+02 </wgt>
<wgt id='1167'> +9.6713064e+01 </wgt>
<wgt id='1168'> +9.5807459e+01 </wgt>
<wgt id='1169'> +9.8346326e+01 </wgt>
<wgt id='1170'> +1.0030024e+02 </wgt>
<wgt id='1171'> +9.6699357e+01 </wgt>
<wgt id='1172'> +1.1733651e+02 </wgt>
<wgt id='1173'> +9.0953721e+01 </wgt>
<wgt id='1174'> +8.7530821e+01 </wgt>
<wgt id='1175'> +9.2447754e+01 </wgt>
<wgt id='1176'> +9.4889846e+01 </wgt>
<wgt id='1177'> +9.9727571e+01 </wgt>
<wgt id='1178'> +1.0092156e+02 </wgt>
<wgt id='1179'> +1.0095622e+02 </wgt>
<wgt id='1180'> +8.9627641e+01 </wgt>
<wgt id='1181'> +9.8566868e+01 </wgt>
<wgt id='1182'> +9.6479459e+01 </wgt>
<wgt id='1183'> +1.0560111e+02 </wgt>
<wgt id='1184'> +9.5244105e+01 </wgt>
<wgt id='1185'> +9.8565150e+01 </wgt>
<wgt id='1186'> +1.1783878e+02 </wgt>
<wgt id='1187'> +1.1922878e+02 </wgt>
<wgt id='1188'> +1.1354350e+02 </wgt>
<wgt id='1189'> +1.1013751e+02 </wgt>
<wgt id='1190'> +9.0651441e+01 </wgt>
<wgt id='1191'> +1.0285561e+02 </wgt>
<wgt id='1192'> +1.0555929e+02 </wgt>
<wgt id='1193'> +1.1344738e+02 </wgt>
<wgt id='1194'> +8.9484963e+01 </wgt>
<wgt id='1195'> +1.0069636e+02 </wgt>
<wgt id='1196'> +9.9849510e+01 </wgt>
<wgt id='1197'> +1.1034690e+02 </wgt>
<wgt id='1198'> +1.0505255e+02 </wgt>
<wgt id='1199'> +1.0506069e+02 </wgt>
<wgt id='1200'> +8.7681254e+01 </wgt>
<wgt id='1201'> +1.0808590e+02 </wgt>
<wgt id='1202'> +7.3381649e+01 </wgt>
<wgt id='1203'> +1.1752082e+02 </wgt>
<wgt id='1204'> +1.1171955e+02 </wgt>
<wgt id='1205'> +1.0182165e+02 </wgt>
<wgt id='1206'> +1.1088327e+02 </wgt>
<wgt id='1207'> +1.0444053e+02 </wgt>
<wgt id='1208'> +8.9777171e+01 </wgt>
<wgt id='1209'> +9.7454536e+01 </wgt>
<wgt id='1210'> +1.0696905e+02 </wgt>
<wgt id='1211'> +8.4513986e+01 </wgt>
<wgt id='1212'> +9.6580700e+01 </wgt>
<wgt id='1213'> +1.0646745e+02 </wgt>
<wgt id='1214'> +1.0240610e+02 </wgt>
<wgt id='1215'> +7.9459445e+01 </wgt>
<wgt id='1216'> +8.9847630e+01 </wgt>
<wgt id='1217'> +9.0442178e+01 </wgt>
<wgt id='1218'> +8.9659029e+01 </wgt>
<wgt id='1219'> +8.9941026e+01 </wgt>
<wgt id='1220'> +8.7176318e+01 </wgt>
<wgt id='1221'> +8.8987348e+01 </wgt>
<wgt id='1222'> +9.1063739e+01 </wgt>
<wgt id='1223'> +8.9223749e+01 </wgt>
<wgt id='1224'> +9.1353276e+01 </wgt>
<wgt id='1225'> +8.9056559e+01 </wgt>
<wgt id='1226'> +9.3634753e+01 </wgt>
<wgt id='1227'> +9.0779197e+01 </wgt>
<wgt id='1228'> +8.8070994e+01 </wgt>
<wgt id='1229'> +9.0040664e+01 </wgt>
<wgt id='1230'> +8.7581704e+01 </wgt>
<wgt id='1231'> +9.2530283e+01 </wgt>
<wgt id='1232'> +8.7910280e+01 </wgt>
<wgt id='1233'> +9.0232538e+01 </wgt>
<wgt id='1234'> +8.8689510e+01 </wgt>
<wgt id='1235'> +9.0449823e+01 </wgt>
<wgt id='1236'> +9.1484274e+01 </wgt>
<wgt id='1237'> +8.8117835e+01 </wgt>
<wgt id='1238'> +8.9288004e+01 </wgt>
<wgt id='1239'> +8.9344860e+01 </wgt>
<wgt id='1240'> +8.9264813e+01 </wgt>
<wgt id='1241'> +9.1219093e+01 </wgt>
<wgt id='1242'> +9.0063064e+01 </wgt>
<wgt id='1243'> +8.9884243e+01 </wgt>
<wgt id='1244'> +9.0786161e+01 </wgt>
<wgt id='1245'> +8.8931019e+01 </wgt>
<wgt id='1246'> +8.8624506e+01 </wgt>
<wgt id='1247'> +9.0102821e+01 </wgt>
<wgt id='1248'> +8.9745122e+01 </wgt>
<wgt id='1249'> +8.9645779e+01 </wgt>
<wgt id='1250'> +9.0507261e+01 </wgt>
<wgt id='1251'> +8.9209823e+01 </wgt>
<wgt id='1252'> +9.0723468e+01 </wgt>
<wgt id='1253'> +9.0990182e+01 </wgt>
<wgt id='1254'> +9.0786688e+01 </wgt>
<wgt id='1255'> +8.9013794e+01 </wgt>
<wgt id='1256'> +8.9904093e+01 </wgt>
<wgt id='1257'> +9.0297110e+01 </wgt>
<wgt id='1258'> +9.1342096e+01 </wgt>
<wgt id='1259'> +9.1543782e+01 </wgt>
<wgt id='1260'> +9.0992112e+01 </wgt>
<wgt id='1261'> +9.1885252e+01 </wgt>
<wgt id='1262'> +8.8737430e+01 </wgt>
<wgt id='1263'> +8.8114929e+01 </wgt>
<wgt id='1264'> +8.9799555e+01 </wgt>
<wgt id='1265'> +8.9395396e+01 </wgt>
<wgt id='1266'> +8.8039798e+01 </wgt>
<wgt id='1267'> +8.9224041e+01 </wgt>
<wgt id='1268'> +9.0244400e+01 </wgt>
<wgt id='1269'> +8.9409418e+01 </wgt>
<wgt id='1270'> +8.8498873e+01 </wgt>
<wgt id='1271'> +8.9764668e+01 </wgt>
<wgt id='1272'> +8.9371096e+01 </wgt>
<wgt id='1273'> +8.9711819e+01 </wgt>
<wgt id='1274'> +8.9384633e+01 </wgt>
<wgt id='1275'> +9.0201660e+01 </wgt>
<wgt id='1276'> +9.0209718e+01 </wgt>
<wgt id='1277'> +8.9808325e+01 </wgt>
<wgt id='1278'> +9.0115664e+01 </wgt>
<wgt id='1279'> +9.0416660e+01 </wgt>
<wgt id='1280'> +9.0220735e+01 </wgt>
<wgt id='1281'> +9.0987712e+01 </wgt>
<wgt id='1282'> +9.0453076e+01 </wgt>
<wgt id='1283'> +8.9442968e+01 </wgt>
<wgt id='1284'> +8.9638879e+01 </wgt>
<wgt id='1285'> +9.0229546e+01 </wgt>
<wgt id='1286'> +8.9808425e+01 </wgt>
<wgt id='1287'> +8.9388969e+01 </wgt>
<wgt id='1288'> +9.0793576e+01 </wgt>
<wgt id='1289'> +8.9956061e+01 </wgt>
<wgt id='1290'> +9.0219048e+01 </wgt>
<wgt id='1291'> +8.9272643e+01 </wgt>
<wgt id='1292'> +8.9305502e+01 </wgt>
<wgt id='1293'> +9.0081611e+01 </wgt>
<wgt id='1294'> +8.9386979e+01 </wgt>
<wgt id='1295'> +9.0056754e+01 </wgt>
<wgt id='1296'> +8.9800502e+01 </wgt>
<wgt id='1297'> +8.9232641e+01 </wgt>
<wgt id='1298'> +8.9816655e+01 </wgt>
<wgt id='1299'> +8.9756301e+01 </wgt>
<wgt id='1300'> +8.9932721e+01 </wgt>
<wgt id='1301'> +8.9636135e+01 </wgt>
<wgt id='1302'> +8.9799152e+01 </wgt>
<wgt id='1303'> +8.9432432e+01 </wgt>
<wgt id='1304'> +8.9961300e+01 </wgt>
<wgt id='1305'> +9.0234060e+01 </wgt>
<wgt id='1306'> +8.9899847e+01 </wgt>
<wgt id='1307'> +8.9714862e+01 </wgt>
<wgt id='1308'> +8.9731486e+01 </wgt>
<wgt id='1309'> +9.0203769e+01 </wgt>
<wgt id='1310'> +9.0048774e+01 </wgt>
<wgt id='1311'> +8.9724107e+01 </wgt>
<wgt id='1312'> +8.9852142e+01 </wgt>
<wgt id='1313'> +8.9759842e+01 </wgt>
<wgt id='1314'> +8.9922202e+01 </wgt>
<wgt id='1315'> +8.9812506e+01 </wgt>
<wgt id='1316'> +9.0347321e+01 </wgt>
<wgt id='1317'> +8.3996648e+01 </wgt>
<wgt id='1318'> +9.5074612e+01 </wgt>
<wgt id='1319'> +4.2439679e+00 </wgt>
<wgt id='1320'> +8.6949279e+01 </wgt>
<wgt id='1321'> +8.7483213e+01 </wgt>
<wgt id='1322'> +8.7394972e+01 </wgt>
<wgt id='1323'> +9.0498616e+01 </wgt>
<wgt id='1324'> +8.5118982e+01 </wgt>
<wgt id='1325'> +8.9634854e+01 </wgt>
<wgt id='1326'> +8.5473363e+01 </wgt>
<wgt id='1327'> +8.8188552e+01 </wgt>
<wgt id='1328'> +8.6679711e+01 </wgt>
<wgt id='1329'> +8.5522439e+01 </wgt>
<wgt id='1330'> +8.7365206e+01 </wgt>
<wgt id='1331'> +8.2332721e+01 </wgt>
<wgt id='1332'> +9.0687145e+01 </wgt>
<wgt id='1333'> +8.8493975e+01 </wgt>
<wgt id='1334'> +8.4565889e+01 </wgt>
<wgt id='1335'> +6.4977994e+01 </wgt>
<wgt id='1336'> +1.1275932e+02 </wgt>
<wgt id='1337'> +8.4803001e+01 </wgt>
<wgt id='1338'> +8.9351441e+01 </wgt>
<wgt id='1339'> +8.5040207e+01 </wgt>
<wgt id='1340'> +8.8908234e+01 </wgt>
<wgt id='1341'> +8.4017013e+01 </wgt>
<wgt id='1342'> +9.2595834e+01 </wgt>
<wgt id='1343'> +8.6887005e+01 </wgt>
<wgt id='1344'> +8.6793346e+01 </wgt>
<wgt id='1345'> +8.7019426e+01 </wgt>
<wgt id='1346'> +8.6983160e+01 </wgt>
<wgt id='1347'> +8.6956665e+01 </wgt>
<wgt id='1348'> +8.6766999e+01 </wgt>
<wgt id='1349'> +8.7752104e+01 </wgt>
<wgt id='1350'> +8.6657336e+01 </wgt>
<wgt id='1351'> +8.6735933e+01 </wgt>
<wgt id='1352'> +8.7169025e+01 </wgt>
<wgt id='1353'> +8.7325119e+01 </wgt>
<wgt id='1354'> +8.5996406e+01 </wgt>
<wgt id='1355'> +8.8220299e+01 </wgt>
<wgt id='1356'> +8.5760994e+01 </wgt>
<wgt id='1357'> +8.7450987e+01 </wgt>
<wgt id='1358'> +8.5001818e+01 </wgt>
<wgt id='1359'> +9.0133552e+01 </wgt>
<wgt id='1360'> +8.1390643e+01 </wgt>
<wgt id='1361'> +8.6628335e+01 </wgt>
<wgt id='1362'> +8.7566148e+01 </wgt>
<wgt id='1363'> +8.5443923e+01 </wgt>
<wgt id='1364'> +8.7860106e+01 </wgt>
<wgt id='1365'> +8.1185286e+01 </wgt>
<wgt id='1366'> +9.0060663e+01 </wgt>
<wgt id='1367'> +8.6168666e+01 </wgt>
<wgt id='1368'> +8.6210061e+01 </wgt>
<wgt id='1369'> +8.8625882e+01 </wgt>
<wgt id='1370'> +8.2201791e+01 </wgt>
<wgt id='1371'> +8.5563887e+01 </wgt>
<wgt id='1372'> +8.5400621e+01 </wgt>
<wgt id='1373'> +8.3419016e+01 </wgt>
<wgt id='1374'> +8.6614733e+01 </wgt>
<wgt id='1375'> +9.8374613e+01 </wgt>
<wgt id='1376'> +6.7854520e+01 </wgt>
<wgt id='1377'> +8.0334163e+01 </wgt>
<wgt id='1378'> +9.3624622e+01 </wgt>
<wgt id='1379'> +9.2777737e+01 </wgt>
<wgt id='1380'> +8.5721856e+01 </wgt>
<wgt id='1381'> +9.9519197e+01 </wgt>
<wgt id='1382'> +5.9154060e+01 </wgt>
<wgt id='1383'> +9.3780904e+01 </wgt>
<wgt id='1384'> +9.6848057e+01 </wgt>
<wgt id='1385'> +1.0725120e+02 </wgt>
<wgt id='1386'> +1.0752824e+02 </wgt>
<wgt id='1387'> +1.0694954e+02 </wgt>
<wgt id='1388'> +1.0671855e+02 </wgt>
<wgt id='1389'> +1.0816643e+02 </wgt>
<wgt id='1390'> +1.0759486e+02 </wgt>
<wgt id='1391'> +1.0685084e+02 </wgt>
<wgt id='1392'> +1.0803878e+02 </wgt>
<wgt id='1393'> +1.0670574e+02 </wgt>
<wgt id='1394'> +1.0667284e+02 </wgt>
<wgt id='1395'> +1.0797236e+02 </wgt>
<wgt id='1396'> +1.0608433e+02 </wgt>
<wgt id='1397'> +1.0786212e+02 </wgt>
<wgt id='1398'> +1.0675395e+02 </wgt>
<wgt id='1399'> +1.0762181e+02 </wgt>
<wgt id='1400'> +1.0768835e+02 </wgt>
<wgt id='1401'> +1.0690415e+02 </wgt>
<wgt id='1402'> +1.0603941e+02 </wgt>
<wgt id='1403'> +1.0781553e+02 </wgt>
<wgt id='1404'> +1.0967766e+02 </wgt>
<wgt id='1405'> +1.0605908e+02 </wgt>
<wgt id='1406'> +1.1185733e+02 </wgt>
<wgt id='1407'> +9.9236598e+01 </wgt>
<wgt id='1408'> +1.1206402e+02 </wgt>
<wgt id='1409'> +9.7904517e+01 </wgt>
<wgt id='1410'> +1.0819657e+02 </wgt>
<wgt id='1411'> +1.0482663e+02 </wgt>
<wgt id='1412'> +1.0455151e+02 </wgt>
<wgt id='1413'> +1.1044884e+02 </wgt>
<wgt id='1414'> +1.0674583e+02 </wgt>
<wgt id='1415'> +1.0766248e+02 </wgt>
<wgt id='1416'> +1.0771051e+02 </wgt>
<wgt id='1417'> +1.0697597e+02 </wgt>
<wgt id='1418'> +1.0756571e+02 </wgt>
<wgt id='1419'> +1.0649335e+02 </wgt>
<wgt id='1420'> +1.0707538e+02 </wgt>
<wgt id='1421'> +1.0676081e+02 </wgt>
<wgt id='1422'> +1.0548534e+02 </wgt>
<wgt id='1423'> +1.0907750e+02 </wgt>
<wgt id='1424'> +1.0731525e+02 </wgt>
<wgt id='1425'> +1.0657449e+02 </wgt>
<wgt id='1426'> +1.0042367e+02 </wgt>
<wgt id='1427'> +1.0855343e+02 </wgt>
<wgt id='1428'> +1.0375697e+02 </wgt>
<wgt id='1429'> +1.0941713e+02 </wgt>
<wgt id='1430'> +1.0475110e+02 </wgt>
<wgt id='1431'> +1.0331631e+02 </wgt>
<wgt id='1432'> +1.0475587e+02 </wgt>
<wgt id='1433'> +1.0193286e+02 </wgt>
<wgt id='1434'> +1.0624112e+02 </wgt>
<wgt id='1435'> +1.0734599e+02 </wgt>
<wgt id='1436'> +7.6895698e+01 </wgt>
<wgt id='1437'> +7.6909338e+01 </wgt>
<wgt id='1438'> +7.6921541e+01 </wgt>
<wgt id='1439'> +7.6905851e+01 </wgt>
<wgt id='1440'> +7.6452330e+01 </wgt>
<wgt id='1441'> +7.5380696e+01 </wgt>
<wgt id='1442'> +7.5234139e+01 </wgt>
<wgt id='1443'> +7.6974236e+01 </wgt>
<wgt id='1444'> +7.6607425e+01 </wgt>
<wgt id='1445'> +7.5689754e+01 </wgt>
<wgt id='1446'> +7.7533346e+01 </wgt>
<wgt id='1447'> +7.6815549e+01 </wgt>
<wgt id='1448'> +7.7453661e+01 </wgt>
<wgt id='1449'> +7.7084422e+01 </wgt>
<wgt id='1450'> +7.7935157e+01 </wgt>
<wgt id='1451'> +7.7133478e+01 </wgt>
<wgt id='1452'> +7.6309286e+01 </wgt>
<wgt id='1453'> +7.6900190e+01 </wgt>
<wgt id='1454'> +7.7256451e+01 </wgt>
<wgt id='1455'> +7.6455415e+01 </wgt>
<wgt id='1456'> +7.6987022e+01 </wgt>
<wgt id='1457'> +7.5390280e+01 </wgt>
<wgt id='1458'> +7.9203807e+01 </wgt>
<wgt id='1459'> +7.6776005e+01 </wgt>
<wgt id='1460'> +7.7247179e+01 </wgt>
<wgt id='1461'> +7.8039280e+01 </wgt>
<wgt id='1462'> +7.6887863e+01 </wgt>
<wgt id='1463'> +7.6644918e+01 </wgt>
<wgt id='1464'> +7.6890414e+01 </wgt>
<wgt id='1465'> +1.1114799e+02 </wgt>
<wgt id='1466'> +8.5173593e+01 </wgt>
<wgt id='1467'> +8.6168592e+01 </wgt>
<wgt id='1468'> +8.6140933e+01 </wgt>
<wgt id='1469'> +7.6686941e+01 </wgt>
<wgt id='1470'> +8.7944156e+01 </wgt>
<wgt id='1471'> +8.4283344e+01 </wgt>
<wgt id='1472'> +8.7393337e+01 </wgt>
<wgt id='1473'> +8.5709041e+01 </wgt>
<wgt id='1474'> +9.0776306e+01 </wgt>
<wgt id='1475'> +8.3786140e+01 </wgt>
<wgt id='1476'> +8.1695067e+01 </wgt>
<wgt id='1477'> +9.0758263e+01 </wgt>
<wgt id='1478'> +8.4954310e+01 </wgt>
<wgt id='1479'> +8.2496473e+01 </wgt>
<wgt id='1480'> +9.0276763e+01 </wgt>
<wgt id='1481'> +8.2589257e+01 </wgt>
<wgt id='1482'> +9.1867225e+01 </wgt>
<wgt id='1483'> +8.2243715e+01 </wgt>
<wgt id='1484'> +8.2151360e+01 </wgt>
<wgt id='1485'> +8.8677441e+01 </wgt>
<wgt id='1486'> +8.8794241e+01 </wgt>
<wgt id='1487'> +8.4290433e+01 </wgt>
<wgt id='1488'> +8.3920789e+01 </wgt>
<wgt id='1489'> +8.2343673e+01 </wgt>
<wgt id='1490'> +8.5092920e+01 </wgt>
<wgt id='1491'> +8.5574742e+01 </wgt>
<wgt id='1492'> +8.5693774e+01 </wgt>
<wgt id='1493'> +8.3682473e+01 </wgt>
<wgt id='1494'> +8.4171040e+01 </wgt>
<wgt id='1495'> +8.5930186e+01 </wgt>
<wgt id='1496'> +8.5765848e+01 </wgt>
<wgt id='1497'> +8.5023297e+01 </wgt>
<wgt id='1498'> +8.4925702e+01 </wgt>
<wgt id='1499'> +8.5027894e+01 </wgt>
<wgt id='1500'> +8.5528945e+01 </wgt>
<wgt id='1501'> +8.6114827e+01 </wgt>
<wgt id='1502'> +8.5259930e+01 </wgt>
<wgt id='1503'> +8.5056150e+01 </wgt>
<wgt id='1504'> +8.4695292e+01 </wgt>
<wgt id='1505'> +8.4751125e+01 </wgt>
<wgt id='1506'> +8.4932264e+01 </wgt>
<wgt id='1507'> +8.6008495e+01 </wgt>
<wgt id='1508'> +8.5137434e+01 </wgt>
<wgt id='1509'> +8.5058788e+01 </wgt>
<wgt id='1510'> +8.5559420e+01 </wgt>
<wgt id='1511'> +8.5289393e+01 </wgt>
<wgt id='1512'> +8.5532797e+01 </wgt>
<wgt id='1513'> +8.4675177e+01 </wgt>
<wgt id='1514'> +8.4143436e+01 </wgt>
<wgt id='1515'> +8.5047396e+01 </wgt>
<wgt id='1516'> +8.5170182e+01 </wgt>
<wgt id='1517'> +8.4379364e+01 </wgt>
<wgt id='1518'> +8.4587071e+01 </wgt>
<wgt id='1519'> +8.5738295e+01 </wgt>
<wgt id='1520'> +8.4837983e+01 </wgt>
<wgt id='1521'> +8.4473120e+01 </wgt>
<wgt id='1522'> +8.4797237e+01 </wgt>
<wgt id='1523'> +8.4710934e+01 </wgt>
<wgt id='1524'> +8.5221495e+01 </wgt>
<wgt id='1525'> +8.5355030e+01 </wgt>
<wgt id='1526'> +8.5479983e+01 </wgt>
<wgt id='1527'> +8.4852733e+01 </wgt>
<wgt id='1528'> +8.5353921e+01 </wgt>
<wgt id='1529'> +8.4865523e+01 </wgt>
<wgt id='1530'> +8.5464425e+01 </wgt>
<wgt id='1531'> +8.5537285e+01 </wgt>
<wgt id='1532'> +8.4768620e+01 </wgt>
<wgt id='1533'> +8.5410534e+01 </wgt>
<wgt id='1534'> +8.5431011e+01 </wgt>
<wgt id='1535'> +8.5541879e+01 </wgt>
<wgt id='1536'> +8.5024530e+01 </wgt>
<wgt id='1537'> +8.4655116e+01 </wgt>
<wgt id='1538'> +8.5448842e+01 </wgt>
<wgt id='1539'> +8.5081409e+01 </wgt>
<wgt id='1540'> +8.5449100e+01 </wgt>
<wgt id='1541'> +8.5294573e+01 </wgt>
<wgt id='1542'> +8.5151876e+01 </wgt>
<wgt id='1543'> +8.5095529e+01 </wgt>
<wgt id='1544'> +8.5039681e+01 </wgt>
<wgt id='1545'> +8.5292784e+01 </wgt>
<wgt id='1546'> +8.5125186e+01 </wgt>
<wgt id='1547'> +8.5068090e+01 </wgt>
<wgt id='1548'> +8.5017512e+01 </wgt>
<wgt id='1549'> +8.5190708e+01 </wgt>
<wgt id='1550'> +8.5319468e+01 </wgt>
<wgt id='1551'> +8.5128955e+01 </wgt>
<wgt id='1552'> +8.5116420e+01 </wgt>
<wgt id='1553'> +8.5221327e+01 </wgt>
<wgt id='1554'> +8.5223111e+01 </wgt>
<wgt id='1555'> +8.5099882e+01 </wgt>
<wgt id='1556'> +8.5303078e+01 </wgt>
<wgt id='1557'> +8.5260753e+01 </wgt>
<wgt id='1558'> +8.5305905e+01 </wgt>
<wgt id='1559'> +8.5126246e+01 </wgt>
<wgt id='1560'> +8.5155141e+01 </wgt>
<wgt id='1561'> +8.5282896e+01 </wgt>
<wgt id='1562'> +8.5138834e+01 </wgt>
<wgt id='1563'> +8.5167199e+01 </wgt>
<wgt id='1564'> +8.5290984e+01 </wgt>
<wgt id='1565'> +8.5343535e+01 </wgt>
<wgt id='1566'> +8.5169288e+01 </wgt>
<wgt id='1567'> +8.0058504e+01 </wgt>
<wgt id='1568'> +9.1154950e+01 </wgt>
<wgt id='1569'> +9.0055030e+01 </wgt>
<wgt id='1570'> +9.2726386e+01 </wgt>
<wgt id='1571'> +8.9641277e+01 </wgt>
<wgt id='1572'> +9.0415874e+01 </wgt>
<wgt id='1573'> +8.5821631e+01 </wgt>
<wgt id='1574'> +8.3893990e+01 </wgt>
<wgt id='1575'> +8.6262203e+01 </wgt>
<wgt id='1576'> +8.7134619e+01 </wgt>
<wgt id='1577'> +9.0092341e+01 </wgt>
<wgt id='1578'> +9.0101370e+01 </wgt>
<wgt id='1579'> +9.4552943e+01 </wgt>
<wgt id='1580'> +8.1321971e+01 </wgt>
<wgt id='1581'> +8.8165812e+01 </wgt>
<wgt id='1582'> +8.9830044e+01 </wgt>
<wgt id='1583'> +8.8369467e+01 </wgt>
<wgt id='1584'> +9.0119149e+01 </wgt>
<wgt id='1585'> +8.7342595e+01 </wgt>
<wgt id='1586'> +9.5332856e+01 </wgt>
<wgt id='1587'> +8.4804348e+01 </wgt>
<wgt id='1588'> +9.2034152e+01 </wgt>
<wgt id='1589'> +8.9890805e+01 </wgt>
<wgt id='1590'> +9.0861951e+01 </wgt>
<wgt id='1591'> +9.4170497e+01 </wgt>
<wgt id='1592'> +9.3951440e+01 </wgt>
<wgt id='1593'> +8.8479346e+01 </wgt>
<wgt id='1594'> +8.9717099e+01 </wgt>
<wgt id='1595'> +9.2764259e+01 </wgt>
<wgt id='1596'> +8.8406868e+01 </wgt>
<wgt id='1597'> +9.0668403e+01 </wgt>
<wgt id='1598'> +9.1951244e+01 </wgt>
<wgt id='1599'> +9.0014116e+01 </wgt>
<wgt id='1600'> +9.0618074e+01 </wgt>
<wgt id='1601'> +8.8870921e+01 </wgt>
<wgt id='1602'> +9.0534256e+01 </wgt>
<wgt id='1603'> +8.8886207e+01 </wgt>
<wgt id='1604'> +9.0022520e+01 </wgt>
<wgt id='1605'> +9.0504665e+01 </wgt>
<wgt id='1606'> +9.0985544e+01 </wgt>
<wgt id='1607'> +9.0075424e+01 </wgt>
<wgt id='1608'> +8.9874145e+01 </wgt>
<wgt id='1609'> +8.9693411e+01 </wgt>
<wgt id='1610'> +8.9776807e+01 </wgt>
<wgt id='1611'> +9.0097829e+01 </wgt>
<wgt id='1612'> +8.9101583e+01 </wgt>
<wgt id='1613'> +9.0236665e+01 </wgt>
<wgt id='1614'> +8.9834534e+01 </wgt>
<wgt id='1615'> +8.9123212e+01 </wgt>
<wgt id='1616'> +9.0102610e+01 </wgt>
<wgt id='1617'> +9.0679938e+01 </wgt>
<wgt id='1618'> +8.9233107e+01 </wgt>
<wgt id='1619'> +9.0792596e+01 </wgt>
<wgt id='1620'> +9.0737404e+01 </wgt>
<wgt id='1621'> +8.9527067e+01 </wgt>
<wgt id='1622'> +9.0140735e+01 </wgt>
<wgt id='1623'> +8.9992171e+01 </wgt>
<wgt id='1624'> +8.9649677e+01 </wgt>
<wgt id='1625'> +9.0933163e+01 </wgt>
<wgt id='1626'> +9.0125322e+01 </wgt>
<wgt id='1627'> +9.0479457e+01 </wgt>
<wgt id='1628'> +9.0345024e+01 </wgt>
<wgt id='1629'> +9.0491271e+01 </wgt>
<wgt id='1630'> +9.0178535e+01 </wgt>
<wgt id='1631'> +8.9870314e+01 </wgt>
<wgt id='1632'> +9.0522088e+01 </wgt>
<wgt id='1633'> +8.9639591e+01 </wgt>
<wgt id='1634'> +8.9767180e+01 </wgt>
<wgt id='1635'> +8.9729196e+01 </wgt>
<wgt id='1636'> +9.0381689e+01 </wgt>
<wgt id='1637'> +8.9972446e+01 </wgt>
<wgt id='1638'> +9.0402666e+01 </wgt>
<wgt id='1639'> +8.9987375e+01 </wgt>
<wgt id='1640'> +8.9871047e+01 </wgt>
<wgt id='1641'> +8.9966676e+01 </wgt>
<wgt id='1642'> +9.0281109e+01 </wgt>
<wgt id='1643'> +9.0014561e+01 </wgt>
<wgt id='1644'> +8.9877719e+01 </wgt>
<wgt id='1645'> +8.9762551e+01 </wgt>
<wgt id='1646'> +8.9945949e+01 </wgt>
<wgt id='1647'> +9.0481786e+01 </wgt>
<wgt id='1648'> +8.9865655e+01 </wgt>
<wgt id='1649'> +9.0065609e+01 </wgt>
<wgt id='1650'> +9.0045623e+01 </wgt>
<wgt id='1651'> +9.0201146e+01 </wgt>
<wgt id='1652'> +8.9960223e+01 </wgt>
<wgt id='1653'> +9.0172851e+01 </wgt>
<wgt id='1654'> +8.9898048e+01 </wgt>
<wgt id='1655'> +9.0122487e+01 </wgt>
<wgt id='1656'> +8.9915393e+01 </wgt>
<wgt id='1657'> +9.0008015e+01 </wgt>
<wgt id='1658'> +9.0046447e+01 </wgt>
<wgt id='1659'> +8.9895493e+01 </wgt>
<wgt id='1660'> +9.0243953e+01 </wgt>
<wgt id='1661'> +9.0054877e+01 </wgt>
<wgt id='1662'> +9.0178524e+01 </wgt>
<wgt id='1663'> +9.0008330e+01 </wgt>
<wgt id='1664'> +9.0104269e+01 </wgt>
<wgt id='1665'> +9.0110201e+01 </wgt>
<wgt id='1666'> +8.9997081e+01 </wgt>
<wgt id='1667'> +9.0070483e+01 </wgt>
<wgt id='1668'> +8.9899412e+01 </wgt>
<wgt id='1669'> +9.0030906e+01 </wgt>
<wgt id='1670'> +8.4407657e+01 </wgt>
<wgt id='1671'> +9.4820235e+01 </wgt>
<wgt id='1672'> +8.5287849e+01 </wgt>
<wgt id='1673'> +8.3493943e+01 </wgt>
<wgt id='1674'> +1.0122559e+02 </wgt>
<wgt id='1675'> +8.5403612e+01 </wgt>
<wgt id='1676'> +8.6755375e+01 </wgt>
<wgt id='1677'> +8.4681080e+01 </wgt>
<wgt id='1678'> +8.6467406e+01 </wgt>
<wgt id='1679'> +8.5075079e+01 </wgt>
<wgt id='1680'> +8.4951701e+01 </wgt>
<wgt id='1681'> +8.3534460e+01 </wgt>
<wgt id='1682'> +8.4668444e+01 </wgt>
<wgt id='1683'> +9.1778196e+01 </wgt>
<wgt id='1684'> +8.4890922e+01 </wgt>
<wgt id='1685'> +8.5087080e+01 </wgt>
<wgt id='1686'> +8.7162802e+01 </wgt>
<wgt id='1687'> +8.5855045e+01 </wgt>
<wgt id='1688'> +8.5960427e+01 </wgt>
<wgt id='1689'> +8.4141601e+01 </wgt>
<wgt id='1690'> +8.4684952e+01 </wgt>
<wgt id='1691'> +8.5176193e+01 </wgt>
<wgt id='1692'> +8.4625767e+01 </wgt>
<wgt id='1693'> +8.5870551e+01 </wgt>
<wgt id='1694'> +8.5265753e+01 </wgt>
<wgt id='1695'> +8.4924951e+01 </wgt>
<wgt id='1696'> +8.5454002e+01 </wgt>
<wgt id='1697'> +8.5438027e+01 </wgt>
<wgt id='1698'> +8.3599979e+01 </wgt>
<wgt id='1699'> +8.5481127e+01 </wgt>
<wgt id='1700'> +8.4759063e+01 </wgt>
<wgt id='1701'> +8.6662799e+01 </wgt>
<wgt id='1702'> +8.5330878e+01 </wgt>
<wgt id='1703'> +8.0058504e+01 </wgt>
<wgt id='1704'> +9.1154950e+01 </wgt>
<wgt id='1705'> +9.0058480e+01 </wgt>
<wgt id='1706'> +9.8257187e+01 </wgt>
<wgt id='1707'> +8.5033548e+01 </wgt>
<wgt id='1708'> +9.0779842e+01 </wgt>
<wgt id='1709'> +9.3879913e+01 </wgt>
<wgt id='1710'> +8.9997278e+01 </wgt>
<wgt id='1711'> +9.1010971e+01 </wgt>
<wgt id='1712'> +9.0779264e+01 </wgt>
<wgt id='1713'> +9.1853788e+01 </wgt>
<wgt id='1714'> +9.6566464e+01 </wgt>
<wgt id='1715'> +8.9596789e+01 </wgt>
<wgt id='1716'> +8.3650071e+01 </wgt>
<wgt id='1717'> +8.8976904e+01 </wgt>
<wgt id='1718'> +9.0037223e+01 </wgt>
<wgt id='1719'> +9.1115424e+01 </wgt>
<wgt id='1720'> +9.1115821e+01 </wgt>
<wgt id='1721'> +9.0459087e+01 </wgt>
<wgt id='1722'> +9.0935078e+01 </wgt>
<wgt id='1723'> +9.0612838e+01 </wgt>
<wgt id='1724'> +9.1328441e+01 </wgt>
<wgt id='1725'> +8.9624380e+01 </wgt>
<wgt id='1726'> +9.1078611e+01 </wgt>
<wgt id='1727'> +8.5877161e+01 </wgt>
<wgt id='1728'> +8.9833560e+01 </wgt>
<wgt id='1729'> +8.7255290e+01 </wgt>
<wgt id='1730'> +9.2568447e+01 </wgt>
<wgt id='1731'> +9.1676732e+01 </wgt>
<wgt id='1732'> +8.6840817e+01 </wgt>
<wgt id='1733'> +8.8008691e+01 </wgt>
<wgt id='1734'> +9.2578369e+01 </wgt>
<wgt id='1735'> +8.8691964e+01 </wgt>
<wgt id='1736'> +8.4407657e+01 </wgt>
<wgt id='1737'> +9.4820235e+01 </wgt>
<wgt id='1738'> +1.0268921e+02 </wgt>
<wgt id='1739'> +1.0295764e+02 </wgt>
<wgt id='1740'> +1.0242250e+02 </wgt>
<wgt id='1741'> +1.0260207e+02 </wgt>
<wgt id='1742'> +1.0277571e+02 </wgt>
<wgt id='1743'> +1.0288847e+02 </wgt>
<wgt id='1744'> +1.0249019e+02 </wgt>
<wgt id='1745'> +1.0214171e+02 </wgt>
<wgt id='1746'> +1.0322168e+02 </wgt>
<wgt id='1747'> +1.0330603e+02 </wgt>
<wgt id='1748'> +1.0207440e+02 </wgt>
<wgt id='1749'> +1.0306047e+02 </wgt>
<wgt id='1750'> +1.0228638e+02 </wgt>
<wgt id='1751'> +1.0271724e+02 </wgt>
<wgt id='1752'> +1.0265688e+02 </wgt>
<wgt id='1753'> +1.0243287e+02 </wgt>
<wgt id='1754'> +1.0298289e+02 </wgt>
<wgt id='1755'> +1.0224465e+02 </wgt>
<wgt id='1756'> +1.0300284e+02 </wgt>
<wgt id='1757'> +1.0260410e+02 </wgt>
<wgt id='1758'> +1.0280732e+02 </wgt>
<wgt id='1759'> +1.0181333e+02 </wgt>
<wgt id='1760'> +1.0343976e+02 </wgt>
<wgt id='1761'> +1.0373151e+02 </wgt>
<wgt id='1762'> +1.0121745e+02 </wgt>
<wgt id='1763'> +1.0304237e+02 </wgt>
<wgt id='1764'> +1.0248053e+02 </wgt>
<wgt id='1765'> +1.0294236e+02 </wgt>
<wgt id='1766'> +1.0249470e+02 </wgt>
<wgt id='1767'> +1.0268921e+02 </wgt>
<wgt id='1768'> +8.1562652e+01 </wgt>
<wgt id='1769'> +1.3008510e+02 </wgt>
<wgt id='1770'> +6.8808164e+01 </wgt>
<wgt id='1771'> +1.0179573e+02 </wgt>
<wgt id='1772'> +1.0295935e+02 </wgt>
<wgt id='1773'> +1.0310010e+02 </wgt>
<wgt id='1774'> +1.0263463e+02 </wgt>
<wgt id='1775'> +1.0268651e+02 </wgt>
<wgt id='1776'> +1.0139627e+02 </wgt>
<wgt id='1777'> +1.0386010e+02 </wgt>
<wgt id='1778'> +1.0322882e+02 </wgt>
<wgt id='1779'> +1.0321684e+02 </wgt>
<wgt id='1780'> +9.8175377e+01 </wgt>
<wgt id='1781'> +1.0595157e+02 </wgt>
<wgt id='1782'> +1.0623427e+02 </wgt>
<wgt id='1783'> +1.0565883e+02 </wgt>
<wgt id='1784'> +1.0576974e+02 </wgt>
<wgt id='1785'> +1.0612145e+02 </wgt>
<wgt id='1786'> +1.0608663e+02 </wgt>
<wgt id='1787'> +1.0580527e+02 </wgt>
<wgt id='1788'> +1.0519953e+02 </wgt>
<wgt id='1789'> +1.0666716e+02 </wgt>
<wgt id='1790'> +1.0650990e+02 </wgt>
<wgt id='1791'> +1.0537402e+02 </wgt>
<wgt id='1792'> +1.0604530e+02 </wgt>
<wgt id='1793'> +1.0584664e+02 </wgt>
<wgt id='1794'> +1.0573383e+02 </wgt>
<wgt id='1795'> +1.0616260e+02 </wgt>
<wgt id='1796'> +1.0588280e+02 </wgt>
<wgt id='1797'> +1.0611405e+02 </wgt>
<wgt id='1798'> +1.0612693e+02 </wgt>
<wgt id='1799'> +1.0573969e+02 </wgt>
<wgt id='1800'> +1.0569138e+02 </wgt>
<wgt id='1801'> +1.0619230e+02 </wgt>
<wgt id='1802'> +1.0617537e+02 </wgt>
<wgt id='1803'> +1.0554404e+02 </wgt>
<wgt id='1804'> +1.0784403e+02 </wgt>
<wgt id='1805'> +1.0409601e+02 </wgt>
<wgt id='1806'> +1.0902820e+02 </wgt>
<wgt id='1807'> +1.0286047e+02 </wgt>
<wgt id='1808'> +1.0833950e+02 </wgt>
<wgt id='1809'> +1.0381058e+02 </wgt>
<wgt id='1810'> +1.0569215e+02 </wgt>
<wgt id='1811'> +8.3479826e+01 </wgt>
<wgt id='1812'> +1.3503817e+02 </wgt>
<wgt id='1813'> +7.0654344e+01 </wgt>
<wgt id='1814'> +1.0595340e+02 </wgt>
<wgt id='1815'> +1.1059867e+02 </wgt>
<wgt id='1816'> +1.0523265e+02 </wgt>
<wgt id='1817'> +1.0546656e+02 </wgt>
<wgt id='1818'> +1.0507754e+02 </wgt>
<wgt id='1819'> +1.0717460e+02 </wgt>
<wgt id='1820'> +1.1168223e+02 </wgt>
<wgt id='1821'> +1.0876289e+02 </wgt>
<wgt id='1822'> +1.0259036e+02 </wgt>
<wgt id='1823'> +1.0397005e+02 </wgt>
<wgt id='1824'> +8.5999504e+01 </wgt>
<wgt id='1825'> +8.5958514e+01 </wgt>
<wgt id='1826'> +8.5917368e+01 </wgt>
<wgt id='1827'> +8.5876002e+01 </wgt>
<wgt id='1828'> +8.5835336e+01 </wgt>
<wgt id='1829'> +8.5794280e+01 </wgt>
<wgt id='1830'> +8.5752964e+01 </wgt>
<wgt id='1831'> +8.5712041e+01 </wgt>
<wgt id='1832'> +8.5671081e+01 </wgt>
<wgt id='1833'> +8.5629815e+01 </wgt>
<wgt id='1834'> +8.5588859e+01 </wgt>
<wgt id='1835'> +8.5548045e+01 </wgt>
<wgt id='1836'> +8.5506863e+01 </wgt>
<wgt id='1837'> +8.5465964e+01 </wgt>
<wgt id='1838'> +8.5424940e+01 </wgt>
<wgt id='1839'> +8.5383704e+01 </wgt>
<wgt id='1840'> +8.5342827e+01 </wgt>
<wgt id='1841'> +8.5301910e+01 </wgt>
<wgt id='1842'> +8.5260632e+01 </wgt>
<wgt id='1843'> +8.5220245e+01 </wgt>
<wgt id='1844'> +8.5179248e+01 </wgt>
<wgt id='1845'> +8.5138018e+01 </wgt>
<wgt id='1846'> +8.5097348e+01 </wgt>
<wgt id='1847'> +8.5056385e+01 </wgt>
<wgt id='1848'> +8.5015254e+01 </wgt>
<wgt id='1849'> +8.4974229e+01 </wgt>
<wgt id='1850'> +8.4933719e+01 </wgt>
<wgt id='1851'> +8.4892636e+01 </wgt>
<wgt id='1852'> +8.4851793e+01 </wgt>
<wgt id='1853'> +8.4811076e+01 </wgt>
<wgt id='1854'> +8.4769965e+01 </wgt>
<wgt id='1855'> +8.9708381e+01 </wgt>
<wgt id='1856'> +9.2333744e+01 </wgt>
<wgt id='1857'> +8.9295207e+01 </wgt>
<wgt id='1858'> +9.0062658e+01 </wgt>
<wgt id='1859'> +8.5473094e+01 </wgt>
<wgt id='1860'> +8.3560704e+01 </wgt>
<wgt id='1861'> +8.5941417e+01 </wgt>
<wgt id='1862'> +8.6814559e+01 </wgt>
<wgt id='1863'> +8.9742823e+01 </wgt>
<wgt id='1864'> +8.9749186e+01 </wgt>
<wgt id='1865'> +9.4186851e+01 </wgt>
<wgt id='1866'> +8.1049683e+01 </wgt>
<wgt id='1867'> +8.7844097e+01 </wgt>
<wgt id='1868'> +8.9489063e+01 </wgt>
<wgt id='1869'> +8.8016280e+01 </wgt>
<wgt id='1870'> +8.9732964e+01 </wgt>
<wgt id='1871'> +8.7041541e+01 </wgt>
<wgt id='1872'> +9.4961302e+01 </wgt>
<wgt id='1873'> +8.4468876e+01 </wgt>
<wgt id='1874'> +9.1701897e+01 </wgt>
<wgt id='1875'> +8.9560612e+01 </wgt>
<wgt id='1876'> +9.0495060e+01 </wgt>
<wgt id='1877'> +9.3804995e+01 </wgt>
<wgt id='1878'> +9.3613403e+01 </wgt>
<wgt id='1879'> +8.8133301e+01 </wgt>
<wgt id='1880'> +8.9351098e+01 </wgt>
<wgt id='1881'> +9.2393248e+01 </wgt>
<wgt id='1882'> +8.8085465e+01 </wgt>
<wgt id='1883'> +9.0332514e+01 </wgt>
<wgt id='1884'> +9.1595683e+01 </wgt>
<wgt id='1885'> +8.9647942e+01 </wgt>
<wgt id='1886'> +9.0293438e+01 </wgt>
<wgt id='1887'> +8.8509400e+01 </wgt>
<wgt id='1888'> +9.0175386e+01 </wgt>
<wgt id='1889'> +8.8537092e+01 </wgt>
<wgt id='1890'> +8.9665056e+01 </wgt>
<wgt id='1891'> +9.0167021e+01 </wgt>
<wgt id='1892'> +9.0644785e+01 </wgt>
<wgt id='1893'> +8.9727221e+01 </wgt>
<wgt id='1894'> +8.9514582e+01 </wgt>
<wgt id='1895'> +8.9346493e+01 </wgt>
<wgt id='1896'> +8.9424828e+01 </wgt>
<wgt id='1897'> +8.9748282e+01 </wgt>
<wgt id='1898'> +8.8762723e+01 </wgt>
<wgt id='1899'> +8.9892252e+01 </wgt>
<wgt id='1900'> +8.9489840e+01 </wgt>
<wgt id='1901'> +8.8781770e+01 </wgt>
<wgt id='1902'> +8.9751380e+01 </wgt>
<wgt id='1903'> +9.0348029e+01 </wgt>
<wgt id='1904'> +8.8873750e+01 </wgt>
<wgt id='1905'> +9.0440411e+01 </wgt>
<wgt id='1906'> +9.0388261e+01 </wgt>
<wgt id='1907'> +8.9178020e+01 </wgt>
<wgt id='1908'> +8.9792845e+01 </wgt>
<wgt id='1909'> +8.9646258e+01 </wgt>
<wgt id='1910'> +8.9316998e+01 </wgt>
<wgt id='1911'> +9.0578466e+01 </wgt>
<wgt id='1912'> +8.9780340e+01 </wgt>
<wgt id='1913'> +9.0145876e+01 </wgt>
<wgt id='1914'> +9.0005967e+01 </wgt>
<wgt id='1915'> +9.0156818e+01 </wgt>
<wgt id='1916'> +8.9837860e+01 </wgt>
<wgt id='1917'> +8.9509247e+01 </wgt>
<wgt id='1918'> +9.0174159e+01 </wgt>
<wgt id='1919'> +8.9284559e+01 </wgt>
<wgt id='1920'> +8.9403787e+01 </wgt>
<wgt id='1921'> +8.9370016e+01 </wgt>
<wgt id='1922'> +9.0035582e+01 </wgt>
<wgt id='1923'> +8.9625304e+01 </wgt>
<wgt id='1924'> +9.0063293e+01 </wgt>
<wgt id='1925'> +8.9645030e+01 </wgt>
<wgt id='1926'> +8.9522711e+01 </wgt>
<wgt id='1927'> +8.9615523e+01 </wgt>
<wgt id='1928'> +8.9935005e+01 </wgt>
<wgt id='1929'> +8.9667343e+01 </wgt>
<wgt id='1930'> +8.9528904e+01 </wgt>
<wgt id='1931'> +8.9409724e+01 </wgt>
<wgt id='1932'> +8.9596444e+01 </wgt>
<wgt id='1933'> +9.0152937e+01 </wgt>
<wgt id='1934'> +8.9519210e+01 </wgt>
<wgt id='1935'> +8.9718205e+01 </wgt>
<wgt id='1936'> +8.9707032e+01 </wgt>
<wgt id='1937'> +8.9863876e+01 </wgt>
<wgt id='1938'> +8.9614214e+01 </wgt>
<wgt id='1939'> +8.9830150e+01 </wgt>
<wgt id='1940'> +8.9554950e+01 </wgt>
<wgt id='1941'> +8.9789341e+01 </wgt>
<wgt id='1942'> +8.9564542e+01 </wgt>
<wgt id='1943'> +8.9658318e+01 </wgt>
<wgt id='1944'> +8.9698819e+01 </wgt>
<wgt id='1945'> +8.9543289e+01 </wgt>
<wgt id='1946'> +8.9901069e+01 </wgt>
<wgt id='1947'> +8.9706275e+01 </wgt>
<wgt id='1948'> +8.9836961e+01 </wgt>
<wgt id='1949'> +8.9656857e+01 </wgt>
<wgt id='1950'> +8.9762356e+01 </wgt>
<wgt id='1951'> +8.9772397e+01 </wgt>
<wgt id='1952'> +8.9647138e+01 </wgt>
<wgt id='1953'> +8.9726577e+01 </wgt>
<wgt id='1954'> +8.9547510e+01 </wgt>
<wgt id='1955'> +8.9684556e+01 </wgt>
<wgt id='1956'> +8.9708212e+01 </wgt>
<wgt id='1957'> +8.9709200e+01 </wgt>
<wgt id='1958'> +8.9708529e+01 </wgt>
<wgt id='1959'> +8.9708566e+01 </wgt>
<wgt id='1960'> +8.9708841e+01 </wgt>
<wgt id='1961'> +8.9708447e+01 </wgt>
<wgt id='1962'> +8.9709345e+01 </wgt>
</rwgt>
</event>
<event npLO=" -1 " npNLO=" 1 ">
 7      1 -1.5146096e+02 1.15427110e+01 7.54677110e-03 1.72000030e-01
        1 -1    0    0  502    0 +0.0000000000e+00 +0.0000000000e+00 +4.1410152000e+02 4.1410152000e+02 0.0000000000e+00 0.0000e+00 9.0000e+00
       21 -1    0    0  501  502 +0.0000000000e+00 +0.0000000000e+00 -7.5960251000e+00 7.5960251000e+00 0.0000000000e+00 0.0000e+00 9.0000e+00
       23  2    1    2    0    0 +1.0539217000e+01 -4.7073435000e+00 +2.9629049000e+02 3.1087976000e+02 9.3407368000e+01 0.0000e+00 0.0000e+00
       11  1    3    3    0    0 -3.1745410000e+01 +4.9205620000e-01 +2.2924117000e+02 2.3142931000e+02 0.0000000000e+00 0.0000e+00 9.0000e+00
      -11  1    3    3    0    0 +1.5271397000e+01 -2.5073265000e+00 +2.4546008000e+01 2.9017387000e+01 0.0000000000e+00 0.0000e+00 9.0000e+00
       22  1    3    3    0    0 +2.7013230000e+01 -2.6920732000e+00 +4.2503311000e+01 5.0433058000e+01 0.0000000000e+00 0.0000e+00 9.0000e+00
        1  1    1    2  501    0 -1.0539217000e+01 +4.7073435000e+00 +1.1021501000e+02 1.1081779000e+02 0.0000000000e+00 0.0000e+00 9.0000e+00
#aMCatNLO 1  0  0  6  2 0.16201834E+01 0.00000000E+00 -9  7  0 0.00000000E+00 0.00000000E+00 0.00000000E+00 0.00000000E+00 0.00000000E+00
<rwgt>
<wgt id='1001'> -1.5146000e+02 </wgt>
<wgt id='1002'> -1.5146000e+02 </wgt>
<wgt id='1003'> -1.4461000e+02 </wgt>
<wgt id='1004'> -1.5086000e+02 </wgt>
<wgt id='1005'> -1.5208000e+02 </wgt>
<wgt id='1006'> -1.5379000e+02 </wgt>
<wgt id='1007'> -1.4146000e+02 </wgt>
<wgt id='1008'> -1.5258000e+02 </wgt>
<wgt id='1009'> -1.5578000e+02 </wgt>
<wgt id='1010'> -1.4985000e+02 </wgt>
<wgt id='1011'> -1.5106000e+02 </wgt>
<wgt id='1012'> -1.5549000e+02 </wgt>
<wgt id='1013'> -1.6011000e+02 </wgt>
<wgt id='1014'> -1.4975000e+02 </wgt>
<wgt id='1015'> -1.5482000e+02 </wgt>
<wgt id='1016'> -1.5273000e+02 </wgt>
<wgt id='1017'> -1.5194000e+02 </wgt>
<wgt id='1018'> -1.4558000e+02 </wgt>
<wgt id='1019'> -1.4739000e+02 </wgt>
<wgt id='1020'> -1.4101000e+02 </wgt>
<wgt id='1021'> -1.5342000e+02 </wgt>
<wgt id='1022'> -1.4854000e+02 </wgt>
<wgt id='1023'> -1.5909000e+02 </wgt>
<wgt id='1024'> -1.5495000e+02 </wgt>
<wgt id='1025'> -1.5638000e+02 </wgt>
<wgt id='1026'> -1.5164000e+02 </wgt>
<wgt id='1027'> -1.4992000e+02 </wgt>
<wgt id='1028'> -1.5035000e+02 </wgt>
<wgt id='1029'> -1.4481000e+02 </wgt>
<wgt id='1030'> -1.5145000e+02 </wgt>
<wgt id='1031'> -1.5021000e+02 </wgt>
<wgt id='1032'> -1.5021000e+02 </wgt>
<wgt id='1033'> -1.5150000e+02 </wgt>
<wgt id='1034'> -1.5717000e+02 </wgt>
<wgt id='1035'> -1.5416000e+02 </wgt>
<wgt id='1036'> -1.5180000e+02 </wgt>
<wgt id='1037'> -1.5232000e+02 </wgt>
<wgt id='1038'> -1.4597000e+02 </wgt>
<wgt id='1039'> -1.4877000e+02 </wgt>
<wgt id='1040'> -1.5042000e+02 </wgt>
<wgt id='1041'> -1.4705000e+02 </wgt>
<wgt id='1042'> -1.5278000e+02 </wgt>
<wgt id='1043'> -1.5676000e+02 </wgt>
<wgt id='1044'> -1.5300000e+02 </wgt>
<wgt id='1045'> -1.5390000e+02 </wgt>
<wgt id='1046'> -1.5164000e+02 </wgt>
<wgt id='1047'> -1.5642000e+02 </wgt>
<wgt id='1048'> -1.5129000e+02 </wgt>
<wgt id='1049'> -1.5005000e+02 </wgt>
<wgt id='1050'> -1.5072000e+02 </wgt>
<wgt id='1051'> -1.4724000e+02 </wgt>
<wgt id='1052'> -1.5340000e+02 </wgt>
<wgt id='1053'> -1.5461000e+02 </wgt>
<wgt id='1054'> -1.5237000e+02 </wgt>
<wgt id='1055'> -1.5111000e+02 </wgt>
<wgt id='1056'> -1.5523000e+02 </wgt>
<wgt id='1057'> -1.5347000e+02 </wgt>
<wgt id='1058'> -1.4771000e+02 </wgt>
<wgt id='1059'> -1.4756000e+02 </wgt>
<wgt id='1060'> -1.5433000e+02 </wgt>
<wgt id='1061'> -1.4789000e+02 </wgt>
<wgt id='1062'> -1.5312000e+02 </wgt>
<wgt id='1063'> -1.5092000e+02 </wgt>
<wgt id='1064'> -1.5147000e+02 </wgt>
<wgt id='1065'> -1.5042000e+02 </wgt>
<wgt id='1066'> -1.4324000e+02 </wgt>
<wgt id='1067'> -1.5151000e+02 </wgt>
<wgt id='1068'> -1.5080000e+02 </wgt>
<wgt id='1069'> -1.6219000e+02 </wgt>
<wgt id='1070'> -1.5306000e+02 </wgt>
<wgt id='1071'> -1.4953000e+02 </wgt>
<wgt id='1072'> -1.5286000e+02 </wgt>
<wgt id='1073'> -1.5315000e+02 </wgt>
<wgt id='1074'> -1.5044000e+02 </wgt>
<wgt id='1075'> -1.5063000e+02 </wgt>
<wgt id='1076'> -1.5371000e+02 </wgt>
<wgt id='1077'> -1.5168000e+02 </wgt>
<wgt id='1078'> -1.5509000e+02 </wgt>
<wgt id='1079'> -1.5426000e+02 </wgt>
<wgt id='1080'> -1.5496000e+02 </wgt>
<wgt id='1081'> -1.5225000e+02 </wgt>
<wgt id='1082'> -1.5158000e+02 </wgt>
<wgt id='1083'> -1.5463000e+02 </wgt>
<wgt id='1084'> -1.5348000e+02 </wgt>
<wgt id='1085'> -1.4869000e+02 </wgt>
<wgt id='1086'> -1.5080000e+02 </wgt>
<wgt id='1087'> -1.5184000e+02 </wgt>
<wgt id='1088'> -1.5148000e+02 </wgt>
<wgt id='1089'> -1.5596000e+02 </wgt>
<wgt id='1090'> -1.5414000e+02 </wgt>
<wgt id='1091'> -1.4841000e+02 </wgt>
<wgt id='1092'> -1.5247000e+02 </wgt>
<wgt id='1093'> -1.5148000e+02 </wgt>
<wgt id='1094'> -1.5076000e+02 </wgt>
<wgt id='1095'> -1.4792000e+02 </wgt>
<wgt id='1096'> -1.5445000e+02 </wgt>
<wgt id='1097'> -1.4520000e+02 </wgt>
<wgt id='1098'> -1.5181000e+02 </wgt>
<wgt id='1099'> -1.4721000e+02 </wgt>
<wgt id='1100'> -1.5311000e+02 </wgt>
<wgt id='1101'> -1.5089000e+02 </wgt>
<wgt id='1102'> -1.4251000e+02 </wgt>
<wgt id='1103'> -1.4839000e+02 </wgt>
<wgt id='1104'> -1.5505000e+02 </wgt>
<wgt id='1105'> -1.5146096e+02 </wgt>
<wgt id='1106'> -5.6340710e+01 </wgt>
<wgt id='1107'> -1.0706545e+02 </wgt>
<wgt id='1108'> -8.4375886e+01 </wgt>
<wgt id='1109'> -6.2772467e+01 </wgt>
<wgt id='1110'> -1.1928826e+02 </wgt>
<wgt id='1111'> -6.5561727e+01 </wgt>
<wgt id='1112'> -4.8775612e+01 </wgt>
<wgt id='1113'> -9.2689019e+01 </wgt>
<wgt id='1114'> -7.9092526e+01 </wgt>
<wgt id='1115'> -8.1280995e+01 </wgt>
<wgt id='1116'> -8.0700646e+01 </wgt>
<wgt id='1117'> -7.7476474e+01 </wgt>
<wgt id='1118'> -7.7388904e+01 </wgt>
<wgt id='1119'> -7.9203422e+01 </wgt>
<wgt id='1120'> -7.8014696e+01 </wgt>
<wgt id='1121'> -8.1100369e+01 </wgt>
<wgt id='1122'> -7.9770961e+01 </wgt>
<wgt id='1123'> -8.0041428e+01 </wgt>
<wgt id='1124'> -7.5594810e+01 </wgt>
<wgt id='1125'> -7.7581094e+01 </wgt>
<wgt id='1126'> -7.8057295e+01 </wgt>
<wgt id='1127'> -7.8500483e+01 </wgt>
<wgt id='1128'> -7.9055610e+01 </wgt>
<wgt id='1129'> -8.0249087e+01 </wgt>
<wgt id='1130'> -7.9146151e+01 </wgt>
<wgt id='1131'> -7.9401605e+01 </wgt>
<wgt id='1132'> -8.0084392e+01 </wgt>
<wgt id='1133'> -8.0077542e+01 </wgt>
<wgt id='1134'> -7.8437723e+01 </wgt>
<wgt id='1135'> -8.0091805e+01 </wgt>
<wgt id='1136'> -8.1294646e+01 </wgt>
<wgt id='1137'> -8.1698722e+01 </wgt>
<wgt id='1138'> -7.9029379e+01 </wgt>
<wgt id='1139'> -8.0168247e+01 </wgt>
<wgt id='1140'> -7.9611024e+01 </wgt>
<wgt id='1141'> -7.8630950e+01 </wgt>
<wgt id='1142'> -7.9979751e+01 </wgt>
<wgt id='1143'> -7.7602542e+01 </wgt>
<wgt id='1144'> -8.0230979e+01 </wgt>
<wgt id='1145'> -7.9255840e+01 </wgt>
<wgt id='1146'> -7.8469863e+01 </wgt>
<wgt id='1147'> -7.9659182e+01 </wgt>
<wgt id='1148'> -7.7243038e+01 </wgt>
<wgt id='1149'> -7.7518519e+01 </wgt>
<wgt id='1150'> -7.9463079e+01 </wgt>
<wgt id='1151'> -8.0208819e+01 </wgt>
<wgt id='1152'> -7.7163474e+01 </wgt>
<wgt id='1153'> -7.8699937e+01 </wgt>
<wgt id='1154'> -7.7442877e+01 </wgt>
<wgt id='1155'> -7.8342805e+01 </wgt>
<wgt id='1156'> -8.0120927e+01 </wgt>
<wgt id='1157'> -7.9173438e+01 </wgt>
<wgt id='1158'> -7.8079214e+01 </wgt>
<wgt id='1159'> -7.9831193e+01 </wgt>
<wgt id='1160'> -7.7358575e+01 </wgt>
<wgt id='1161'> -7.8200631e+01 </wgt>
<wgt id='1162'> -8.1038747e+01 </wgt>
<wgt id='1163'> -8.0573484e+01 </wgt>
<wgt id='1164'> -7.8178431e+01 </wgt>
<wgt id='1165'> -7.8944635e+01 </wgt>
<wgt id='1166'> -8.0900856e+01 </wgt>
<wgt id='1167'> -7.8266582e+01 </wgt>
<wgt id='1168'> -8.0698027e+01 </wgt>
<wgt id='1169'> -7.9159631e+01 </wgt>
<wgt id='1170'> -8.0591696e+01 </wgt>
<wgt id='1171'> -8.2814631e+01 </wgt>
<wgt id='1172'> -8.1746163e+01 </wgt>
<wgt id='1173'> -7.8482696e+01 </wgt>
<wgt id='1174'> -8.0972395e+01 </wgt>
<wgt id='1175'> -7.8668719e+01 </wgt>
<wgt id='1176'> -7.9572767e+01 </wgt>
<wgt id='1177'> -7.6713569e+01 </wgt>
<wgt id='1178'> -7.7776322e+01 </wgt>
<wgt id='1179'> -7.9738598e+01 </wgt>
<wgt id='1180'> -8.1079497e+01 </wgt>
<wgt id='1181'> -7.8676122e+01 </wgt>
<wgt id='1182'> -7.9571649e+01 </wgt>
<wgt id='1183'> -7.8054359e+01 </wgt>
<wgt id='1184'> -7.9479046e+01 </wgt>
<wgt id='1185'> -7.9556860e+01 </wgt>
<wgt id='1186'> -8.0837851e+01 </wgt>
<wgt id='1187'> -7.7792447e+01 </wgt>
<wgt id='1188'> -7.6343654e+01 </wgt>
<wgt id='1189'> -7.7921743e+01 </wgt>
<wgt id='1190'> -7.7379404e+01 </wgt>
<wgt id='1191'> -7.7741582e+01 </wgt>
<wgt id='1192'> -8.0117122e+01 </wgt>
<wgt id='1193'> -7.7575046e+01 </wgt>
<wgt id='1194'> -7.6304419e+01 </wgt>
<wgt id='1195'> -7.9720616e+01 </wgt>
<wgt id='1196'> -7.9146151e+01 </wgt>
<wgt id='1197'> -7.4609087e+01 </wgt>
<wgt id='1198'> -7.9724030e+01 </wgt>
<wgt id='1199'> -7.8807515e+01 </wgt>
<wgt id='1200'> -8.3491614e+01 </wgt>
<wgt id='1201'> -7.9103731e+01 </wgt>
<wgt id='1202'> -7.7921375e+01 </wgt>
<wgt id='1203'> -7.1627704e+01 </wgt>
<wgt id='1204'> -7.8220657e+01 </wgt>
<wgt id='1205'> -8.0312933e+01 </wgt>
<wgt id='1206'> -7.8110358e+01 </wgt>
<wgt id='1207'> -7.9543819e+01 </wgt>
<wgt id='1208'> -8.0621589e+01 </wgt>
<wgt id='1209'> -8.1176818e+01 </wgt>
<wgt id='1210'> -8.0202995e+01 </wgt>
<wgt id='1211'> -7.8584976e+01 </wgt>
<wgt id='1212'> -7.8172506e+01 </wgt>
<wgt id='1213'> -7.9590583e+01 </wgt>
<wgt id='1214'> -8.1575029e+01 </wgt>
<wgt id='1215'> -7.6745038e+01 </wgt>
<wgt id='1216'> -7.9146654e+01 </wgt>
<wgt id='1217'> -7.9154540e+01 </wgt>
<wgt id='1218'> -7.9137078e+01 </wgt>
<wgt id='1219'> -7.9101411e+01 </wgt>
<wgt id='1220'> -7.9032593e+01 </wgt>
<wgt id='1221'> -7.9078805e+01 </wgt>
<wgt id='1222'> -7.9027726e+01 </wgt>
<wgt id='1223'> -7.8985234e+01 </wgt>
<wgt id='1224'> -7.9398313e+01 </wgt>
<wgt id='1225'> -7.8916909e+01 </wgt>
<wgt id='1226'> -7.9115237e+01 </wgt>
<wgt id='1227'> -7.9179067e+01 </wgt>
<wgt id='1228'> -7.9117284e+01 </wgt>
<wgt id='1229'> -7.9208343e+01 </wgt>
<wgt id='1230'> -7.9118472e+01 </wgt>
<wgt id='1231'> -7.9107982e+01 </wgt>
<wgt id='1232'> -7.9352785e+01 </wgt>
<wgt id='1233'> -7.9051346e+01 </wgt>
<wgt id='1234'> -7.9200894e+01 </wgt>
<wgt id='1235'> -7.9035767e+01 </wgt>
<wgt id='1236'> -7.8970311e+01 </wgt>
<wgt id='1237'> -7.9353719e+01 </wgt>
<wgt id='1238'> -7.9132146e+01 </wgt>
<wgt id='1239'> -7.9137124e+01 </wgt>
<wgt id='1240'> -7.9535503e+01 </wgt>
<wgt id='1241'> -7.8982248e+01 </wgt>
<wgt id='1242'> -7.9194555e+01 </wgt>
<wgt id='1243'> -7.8851621e+01 </wgt>
<wgt id='1244'> -7.9362355e+01 </wgt>
<wgt id='1245'> -7.9598584e+01 </wgt>
<wgt id='1246'> -7.8508826e+01 </wgt>
<wgt id='1247'> -7.8676890e+01 </wgt>
<wgt id='1248'> -7.9471740e+01 </wgt>
<wgt id='1249'> -7.9092211e+01 </wgt>
<wgt id='1250'> -7.8990435e+01 </wgt>
<wgt id='1251'> -7.9318724e+01 </wgt>
<wgt id='1252'> -7.9183971e+01 </wgt>
<wgt id='1253'> -7.8878199e+01 </wgt>
<wgt id='1254'> -7.9145691e+01 </wgt>
<wgt id='1255'> -7.9213608e+01 </wgt>
<wgt id='1256'> -7.9071622e+01 </wgt>
<wgt id='1257'> -7.9394160e+01 </wgt>
<wgt id='1258'> -7.9031079e+01 </wgt>
<wgt id='1259'> -7.9052921e+01 </wgt>
<wgt id='1260'> -7.9132152e+01 </wgt>
<wgt id='1261'> -7.9064116e+01 </wgt>
<wgt id='1262'> -7.9260442e+01 </wgt>
<wgt id='1263'> -7.9332435e+01 </wgt>
<wgt id='1264'> -7.9208226e+01 </wgt>
<wgt id='1265'> -7.9000142e+01 </wgt>
<wgt id='1266'> -7.9216133e+01 </wgt>
<wgt id='1267'> -7.9285234e+01 </wgt>
<wgt id='1268'> -7.9142697e+01 </wgt>
<wgt id='1269'> -7.9016298e+01 </wgt>
<wgt id='1270'> -7.9024909e+01 </wgt>
<wgt id='1271'> -7.9198418e+01 </wgt>
<wgt id='1272'> -7.8813481e+01 </wgt>
<wgt id='1273'> -7.9207158e+01 </wgt>
<wgt id='1274'> -7.9060446e+01 </wgt>
<wgt id='1275'> -7.9258832e+01 </wgt>
<wgt id='1276'> -7.9063753e+01 </wgt>
<wgt id='1277'> -7.9199031e+01 </wgt>
<wgt id='1278'> -7.9093185e+01 </wgt>
<wgt id='1279'> -7.9254279e+01 </wgt>
<wgt id='1280'> -7.9036666e+01 </wgt>
<wgt id='1281'> -7.9137210e+01 </wgt>
<wgt id='1282'> -7.9316203e+01 </wgt>
<wgt id='1283'> -7.9040252e+01 </wgt>
<wgt id='1284'> -7.9208123e+01 </wgt>
<wgt id='1285'> -7.9176121e+01 </wgt>
<wgt id='1286'> -7.9137059e+01 </wgt>
<wgt id='1287'> -7.9157395e+01 </wgt>
<wgt id='1288'> -7.9139293e+01 </wgt>
<wgt id='1289'> -7.9115870e+01 </wgt>
<wgt id='1290'> -7.9186686e+01 </wgt>
<wgt id='1291'> -7.9235518e+01 </wgt>
<wgt id='1292'> -7.9216388e+01 </wgt>
<wgt id='1293'> -7.9124422e+01 </wgt>
<wgt id='1294'> -7.9193656e+01 </wgt>
<wgt id='1295'> -7.9169052e+01 </wgt>
<wgt id='1296'> -7.9181155e+01 </wgt>
<wgt id='1297'> -7.9080828e+01 </wgt>
<wgt id='1298'> -7.9084522e+01 </wgt>
<wgt id='1299'> -7.9066585e+01 </wgt>
<wgt id='1300'> -7.9232188e+01 </wgt>
<wgt id='1301'> -7.9066725e+01 </wgt>
<wgt id='1302'> -7.9155129e+01 </wgt>
<wgt id='1303'> -7.9075036e+01 </wgt>
<wgt id='1304'> -7.9137747e+01 </wgt>
<wgt id='1305'> -7.9125480e+01 </wgt>
<wgt id='1306'> -7.9202224e+01 </wgt>
<wgt id='1307'> -7.9201381e+01 </wgt>
<wgt id='1308'> -7.9115785e+01 </wgt>
<wgt id='1309'> -7.9175575e+01 </wgt>
<wgt id='1310'> -7.9144131e+01 </wgt>
<wgt id='1311'> -7.9140189e+01 </wgt>
<wgt id='1312'> -7.9129491e+01 </wgt>
<wgt id='1313'> -7.9047699e+01 </wgt>
<wgt id='1314'> -7.9164820e+01 </wgt>
<wgt id='1315'> -7.9173114e+01 </wgt>
<wgt id='1316'> -7.9218489e+01 </wgt>
<wgt id='1317'> -7.5941739e+01 </wgt>
<wgt id='1318'> -8.2602139e+01 </wgt>
<wgt id='1319'> -9.0336929e+01 </wgt>
<wgt id='1320'> -8.0045538e+01 </wgt>
<wgt id='1321'> -8.1766816e+01 </wgt>
<wgt id='1322'> -8.0376508e+01 </wgt>
<wgt id='1323'> -8.0138944e+01 </wgt>
<wgt id='1324'> -8.0737967e+01 </wgt>
<wgt id='1325'> -8.0878827e+01 </wgt>
<wgt id='1326'> -7.9621771e+01 </wgt>
<wgt id='1327'> -7.9889420e+01 </wgt>
<wgt id='1328'> -8.0437521e+01 </wgt>
<wgt id='1329'> -7.9115628e+01 </wgt>
<wgt id='1330'> -8.0299004e+01 </wgt>
<wgt id='1331'> -7.9582443e+01 </wgt>
<wgt id='1332'> -8.0689855e+01 </wgt>
<wgt id='1333'> -7.7543773e+01 </wgt>
<wgt id='1334'> -8.1156484e+01 </wgt>
<wgt id='1335'> -8.0281787e+01 </wgt>
<wgt id='1336'> -7.9253725e+01 </wgt>
<wgt id='1337'> -8.1347319e+01 </wgt>
<wgt id='1338'> -7.8537027e+01 </wgt>
<wgt id='1339'> -8.0475425e+01 </wgt>
<wgt id='1340'> -7.9552937e+01 </wgt>
<wgt id='1341'> -7.9931452e+01 </wgt>
<wgt id='1342'> -8.0219132e+01 </wgt>
<wgt id='1343'> -8.0211866e+01 </wgt>
<wgt id='1344'> -8.0089922e+01 </wgt>
<wgt id='1345'> -7.8352736e+01 </wgt>
<wgt id='1346'> -8.1640194e+01 </wgt>
<wgt id='1347'> -7.9816435e+01 </wgt>
<wgt id='1348'> -8.0445724e+01 </wgt>
<wgt id='1349'> -8.0019243e+01 </wgt>
<wgt id='1350'> -8.0053997e+01 </wgt>
<wgt id='1351'> -8.0274211e+01 </wgt>
<wgt id='1352'> -7.9749858e+01 </wgt>
<wgt id='1353'> -8.0094041e+01 </wgt>
<wgt id='1354'> -7.9979453e+01 </wgt>
<wgt id='1355'> -8.2345892e+01 </wgt>
<wgt id='1356'> -7.7955818e+01 </wgt>
<wgt id='1357'> -8.0366299e+01 </wgt>
<wgt id='1358'> -7.9235275e+01 </wgt>
<wgt id='1359'> -7.9013987e+01 </wgt>
<wgt id='1360'> -8.0370096e+01 </wgt>
<wgt id='1361'> -8.1375675e+01 </wgt>
<wgt id='1362'> -7.9432430e+01 </wgt>
<wgt id='1363'> -7.9336044e+01 </wgt>
<wgt id='1364'> -7.9833339e+01 </wgt>
<wgt id='1365'> -7.9970530e+01 </wgt>
<wgt id='1366'> -7.8985057e+01 </wgt>
<wgt id='1367'> -7.9832992e+01 </wgt>
<wgt id='1368'> -8.0663010e+01 </wgt>
<wgt id='1369'> -7.9971124e+01 </wgt>
<wgt id='1370'> -8.0320712e+01 </wgt>
<wgt id='1371'> -7.9211600e+01 </wgt>
<wgt id='1372'> -7.9462592e+01 </wgt>
<wgt id='1373'> -7.8861852e+01 </wgt>
<wgt id='1374'> -7.8688268e+01 </wgt>
<wgt id='1375'> -8.0371359e+01 </wgt>
<wgt id='1376'> -8.0002258e+01 </wgt>
<wgt id='1377'> -7.6398092e+01 </wgt>
<wgt id='1378'> -8.3651022e+01 </wgt>
<wgt id='1379'> -7.7652361e+01 </wgt>
<wgt id='1380'> -7.4388259e+01 </wgt>
<wgt id='1381'> -8.0940369e+01 </wgt>
<wgt id='1382'> -8.5248875e+01 </wgt>
<wgt id='1383'> -7.7194555e+01 </wgt>
<wgt id='1384'> -7.7650654e+01 </wgt>
<wgt id='1385'> -1.2293300e+02 </wgt>
<wgt id='1386'> -1.2321333e+02 </wgt>
<wgt id='1387'> -1.2262864e+02 </wgt>
<wgt id='1388'> -1.2292296e+02 </wgt>
<wgt id='1389'> -1.2294207e+02 </wgt>
<wgt id='1390'> -1.2323848e+02 </wgt>
<wgt id='1391'> -1.2258025e+02 </wgt>
<wgt id='1392'> -1.2358543e+02 </wgt>
<wgt id='1393'> -1.2247835e+02 </wgt>
<wgt id='1394'> -1.2207229e+02 </wgt>
<wgt id='1395'> -1.2400600e+02 </wgt>
<wgt id='1396'> -1.2349639e+02 </wgt>
<wgt id='1397'> -1.2264037e+02 </wgt>
<wgt id='1398'> -1.2102943e+02 </wgt>
<wgt id='1399'> -1.2435762e+02 </wgt>
<wgt id='1400'> -1.2248663e+02 </wgt>
<wgt id='1401'> -1.2327724e+02 </wgt>
<wgt id='1402'> -1.2277250e+02 </wgt>
<wgt id='1403'> -1.2301216e+02 </wgt>
<wgt id='1404'> -1.2042412e+02 </wgt>
<wgt id='1405'> -1.2422140e+02 </wgt>
<wgt id='1406'> -1.2297683e+02 </wgt>
<wgt id='1407'> -1.2286681e+02 </wgt>
<wgt id='1408'> -1.2261723e+02 </wgt>
<wgt id='1409'> -1.2358357e+02 </wgt>
<wgt id='1410'> -1.2307332e+02 </wgt>
<wgt id='1411'> -1.2266188e+02 </wgt>
<wgt id='1412'> -1.2368347e+02 </wgt>
<wgt id='1413'> -1.2174462e+02 </wgt>
<wgt id='1414'> -1.2274922e+02 </wgt>
<wgt id='1415'> -1.2314253e+02 </wgt>
<wgt id='1416'> -1.2223806e+02 </wgt>
<wgt id='1417'> -1.2318048e+02 </wgt>
<wgt id='1418'> -1.2246522e+02 </wgt>
<wgt id='1419'> -1.2383041e+02 </wgt>
<wgt id='1420'> -1.2350726e+02 </wgt>
<wgt id='1421'> -1.2337137e+02 </wgt>
<wgt id='1422'> -1.2371193e+02 </wgt>
<wgt id='1423'> -1.2198667e+02 </wgt>
<wgt id='1424'> -1.2304509e+02 </wgt>
<wgt id='1425'> -1.2263002e+02 </wgt>
<wgt id='1426'> -1.2354175e+02 </wgt>
<wgt id='1427'> -1.2254548e+02 </wgt>
<wgt id='1428'> -1.2355688e+02 </wgt>
<wgt id='1429'> -1.2181231e+02 </wgt>
<wgt id='1430'> -1.2291941e+02 </wgt>
<wgt id='1431'> -1.2328787e+02 </wgt>
<wgt id='1432'> -1.2303945e+02 </wgt>
<wgt id='1433'> -1.2321386e+02 </wgt>
<wgt id='1434'> -1.2278286e+02 </wgt>
<wgt id='1435'> -1.2190342e+02 </wgt>
<wgt id='1436'> -6.6445058e+01 </wgt>
<wgt id='1437'> -6.6431987e+01 </wgt>
<wgt id='1438'> -6.6490156e+01 </wgt>
<wgt id='1439'> -6.6445646e+01 </wgt>
<wgt id='1440'> -6.6438751e+01 </wgt>
<wgt id='1441'> -6.6786159e+01 </wgt>
<wgt id='1442'> -6.6065541e+01 </wgt>
<wgt id='1443'> -6.6440231e+01 </wgt>
<wgt id='1444'> -6.6347688e+01 </wgt>
<wgt id='1445'> -6.5613210e+01 </wgt>
<wgt id='1446'> -6.6900116e+01 </wgt>
<wgt id='1447'> -6.6342375e+01 </wgt>
<wgt id='1448'> -6.6392872e+01 </wgt>
<wgt id='1449'> -6.6664040e+01 </wgt>
<wgt id='1450'> -6.6585188e+01 </wgt>
<wgt id='1451'> -6.6848540e+01 </wgt>
<wgt id='1452'> -6.6261839e+01 </wgt>
<wgt id='1453'> -6.6421712e+01 </wgt>
<wgt id='1454'> -6.6626972e+01 </wgt>
<wgt id='1455'> -6.6430786e+01 </wgt>
<wgt id='1456'> -6.6512672e+01 </wgt>
<wgt id='1457'> -6.6807779e+01 </wgt>
<wgt id='1458'> -6.7071826e+01 </wgt>
<wgt id='1459'> -6.5960290e+01 </wgt>
<wgt id='1460'> -6.6290222e+01 </wgt>
<wgt id='1461'> -6.6786376e+01 </wgt>
<wgt id='1462'> -6.5755237e+01 </wgt>
<wgt id='1463'> -6.7389199e+01 </wgt>
<wgt id='1464'> -6.6135952e+01 </wgt>
<wgt id='1465'> -7.6446801e+01 </wgt>
<wgt id='1466'> -7.7603707e+01 </wgt>
<wgt id='1467'> -7.7448705e+01 </wgt>
<wgt id='1468'> -7.6955118e+01 </wgt>
<wgt id='1469'> -7.7796398e+01 </wgt>
<wgt id='1470'> -7.7735860e+01 </wgt>
<wgt id='1471'> -7.7938981e+01 </wgt>
<wgt id='1472'> -7.6714210e+01 </wgt>
<wgt id='1473'> -7.8713946e+01 </wgt>
<wgt id='1474'> -7.8952929e+01 </wgt>
<wgt id='1475'> -7.7345861e+01 </wgt>
<wgt id='1476'> -7.7356121e+01 </wgt>
<wgt id='1477'> -7.7262596e+01 </wgt>
<wgt id='1478'> -7.7253351e+01 </wgt>
<wgt id='1479'> -7.7669762e+01 </wgt>
<wgt id='1480'> -7.7628105e+01 </wgt>
<wgt id='1481'> -7.7422276e+01 </wgt>
<wgt id='1482'> -7.7345095e+01 </wgt>
<wgt id='1483'> -7.7598117e+01 </wgt>
<wgt id='1484'> -7.8291082e+01 </wgt>
<wgt id='1485'> -7.7292153e+01 </wgt>
<wgt id='1486'> -7.7662999e+01 </wgt>
<wgt id='1487'> -7.7602036e+01 </wgt>
<wgt id='1488'> -7.7587977e+01 </wgt>
<wgt id='1489'> -7.8250854e+01 </wgt>
<wgt id='1490'> -7.7365144e+01 </wgt>
<wgt id='1491'> -7.7653263e+01 </wgt>
<wgt id='1492'> -7.7298104e+01 </wgt>
<wgt id='1493'> -7.7692372e+01 </wgt>
<wgt id='1494'> -7.7551827e+01 </wgt>
<wgt id='1495'> -7.7347797e+01 </wgt>
<wgt id='1496'> -7.7255875e+01 </wgt>
<wgt id='1497'> -7.7506492e+01 </wgt>
<wgt id='1498'> -7.7958170e+01 </wgt>
<wgt id='1499'> -7.7390333e+01 </wgt>
<wgt id='1500'> -7.7310192e+01 </wgt>
<wgt id='1501'> -7.7841958e+01 </wgt>
<wgt id='1502'> -7.7479279e+01 </wgt>
<wgt id='1503'> -7.7669693e+01 </wgt>
<wgt id='1504'> -7.7306408e+01 </wgt>
<wgt id='1505'> -7.7312394e+01 </wgt>
<wgt id='1506'> -7.7672578e+01 </wgt>
<wgt id='1507'> -7.7371546e+01 </wgt>
<wgt id='1508'> -7.7899919e+01 </wgt>
<wgt id='1509'> -7.7580130e+01 </wgt>
<wgt id='1510'> -7.7648490e+01 </wgt>
<wgt id='1511'> -7.7745623e+01 </wgt>
<wgt id='1512'> -7.7554775e+01 </wgt>
<wgt id='1513'> -7.7856046e+01 </wgt>
<wgt id='1514'> -7.7505789e+01 </wgt>
<wgt id='1515'> -7.7646196e+01 </wgt>
<wgt id='1516'> -7.7763868e+01 </wgt>
<wgt id='1517'> -7.7365504e+01 </wgt>
<wgt id='1518'> -7.7622313e+01 </wgt>
<wgt id='1519'> -7.7608675e+01 </wgt>
<wgt id='1520'> -7.7408609e+01 </wgt>
<wgt id='1521'> -7.7590810e+01 </wgt>
<wgt id='1522'> -7.7566441e+01 </wgt>
<wgt id='1523'> -7.7449638e+01 </wgt>
<wgt id='1524'> -7.7771463e+01 </wgt>
<wgt id='1525'> -7.7678694e+01 </wgt>
<wgt id='1526'> -7.7460628e+01 </wgt>
<wgt id='1527'> -7.7590313e+01 </wgt>
<wgt id='1528'> -7.7537852e+01 </wgt>
<wgt id='1529'> -7.7708433e+01 </wgt>
<wgt id='1530'> -7.7622197e+01 </wgt>
<wgt id='1531'> -7.7672609e+01 </wgt>
<wgt id='1532'> -7.7516196e+01 </wgt>
<wgt id='1533'> -7.7633708e+01 </wgt>
<wgt id='1534'> -7.7595265e+01 </wgt>
<wgt id='1535'> -7.7628859e+01 </wgt>
<wgt id='1536'> -7.7596047e+01 </wgt>
<wgt id='1537'> -7.7595260e+01 </wgt>
<wgt id='1538'> -7.7610250e+01 </wgt>
<wgt id='1539'> -7.7513347e+01 </wgt>
<wgt id='1540'> -7.7573113e+01 </wgt>
<wgt id='1541'> -7.7634331e+01 </wgt>
<wgt id='1542'> -7.7635606e+01 </wgt>
<wgt id='1543'> -7.7606607e+01 </wgt>
<wgt id='1544'> -7.7611714e+01 </wgt>
<wgt id='1545'> -7.7659821e+01 </wgt>
<wgt id='1546'> -7.7599923e+01 </wgt>
<wgt id='1547'> -7.7597955e+01 </wgt>
<wgt id='1548'> -7.7519611e+01 </wgt>
<wgt id='1549'> -7.7667936e+01 </wgt>
<wgt id='1550'> -7.7609983e+01 </wgt>
<wgt id='1551'> -7.7545628e+01 </wgt>
<wgt id='1552'> -7.7603782e+01 </wgt>
<wgt id='1553'> -7.7532357e+01 </wgt>
<wgt id='1554'> -7.7598598e+01 </wgt>
<wgt id='1555'> -7.7649660e+01 </wgt>
<wgt id='1556'> -7.7592356e+01 </wgt>
<wgt id='1557'> -7.7608061e+01 </wgt>
<wgt id='1558'> -7.7602856e+01 </wgt>
<wgt id='1559'> -7.7553178e+01 </wgt>
<wgt id='1560'> -7.7631130e+01 </wgt>
<wgt id='1561'> -7.7599855e+01 </wgt>
<wgt id='1562'> -7.7581107e+01 </wgt>
<wgt id='1563'> -7.7619162e+01 </wgt>
<wgt id='1564'> -7.7622081e+01 </wgt>
<wgt id='1565'> -7.7623080e+01 </wgt>
<wgt id='1566'> -7.7584977e+01 </wgt>
<wgt id='1567'> -7.4936833e+01 </wgt>
<wgt id='1568'> -8.0156778e+01 </wgt>
<wgt id='1569'> -7.7312181e+01 </wgt>
<wgt id='1570'> -7.7567918e+01 </wgt>
<wgt id='1571'> -7.7076017e+01 </wgt>
<wgt id='1572'> -7.7506525e+01 </wgt>
<wgt id='1573'> -7.7368592e+01 </wgt>
<wgt id='1574'> -7.7232260e+01 </wgt>
<wgt id='1575'> -7.7729629e+01 </wgt>
<wgt id='1576'> -7.8006592e+01 </wgt>
<wgt id='1577'> -7.7578423e+01 </wgt>
<wgt id='1578'> -7.7083366e+01 </wgt>
<wgt id='1579'> -7.7617549e+01 </wgt>
<wgt id='1580'> -7.7521121e+01 </wgt>
<wgt id='1581'> -7.6686670e+01 </wgt>
<wgt id='1582'> -7.7284519e+01 </wgt>
<wgt id='1583'> -7.6697515e+01 </wgt>
<wgt id='1584'> -7.7842782e+01 </wgt>
<wgt id='1585'> -7.7095806e+01 </wgt>
<wgt id='1586'> -7.7406996e+01 </wgt>
<wgt id='1587'> -7.7451572e+01 </wgt>
<wgt id='1588'> -7.6724052e+01 </wgt>
<wgt id='1589'> -7.7414015e+01 </wgt>
<wgt id='1590'> -7.7391530e+01 </wgt>
<wgt id='1591'> -7.6671709e+01 </wgt>
<wgt id='1592'> -7.7358314e+01 </wgt>
<wgt id='1593'> -7.7536893e+01 </wgt>
<wgt id='1594'> -7.7125566e+01 </wgt>
<wgt id='1595'> -7.7013239e+01 </wgt>
<wgt id='1596'> -7.7514054e+01 </wgt>
<wgt id='1597'> -7.7260921e+01 </wgt>
<wgt id='1598'> -7.6961141e+01 </wgt>
<wgt id='1599'> -7.7347601e+01 </wgt>
<wgt id='1600'> -7.7305157e+01 </wgt>
<wgt id='1601'> -7.7680094e+01 </wgt>
<wgt id='1602'> -7.7537936e+01 </wgt>
<wgt id='1603'> -7.7240354e+01 </wgt>
<wgt id='1604'> -7.7556432e+01 </wgt>
<wgt id='1605'> -7.6977038e+01 </wgt>
<wgt id='1606'> -7.7706098e+01 </wgt>
<wgt id='1607'> -7.7575790e+01 </wgt>
<wgt id='1608'> -7.7112425e+01 </wgt>
<wgt id='1609'> -7.7267150e+01 </wgt>
<wgt id='1610'> -7.6920603e+01 </wgt>
<wgt id='1611'> -7.7181426e+01 </wgt>
<wgt id='1612'> -7.7442430e+01 </wgt>
<wgt id='1613'> -7.7533373e+01 </wgt>
<wgt id='1614'> -7.7242048e+01 </wgt>
<wgt id='1615'> -7.7376271e+01 </wgt>
<wgt id='1616'> -7.7097463e+01 </wgt>
<wgt id='1617'> -7.7186855e+01 </wgt>
<wgt id='1618'> -7.7228834e+01 </wgt>
<wgt id='1619'> -7.7334622e+01 </wgt>
<wgt id='1620'> -7.7334689e+01 </wgt>
<wgt id='1621'> -7.7303616e+01 </wgt>
<wgt id='1622'> -7.7193189e+01 </wgt>
<wgt id='1623'> -7.7322761e+01 </wgt>
<wgt id='1624'> -7.7147773e+01 </wgt>
<wgt id='1625'> -7.7539649e+01 </wgt>
<wgt id='1626'> -7.7343636e+01 </wgt>
<wgt id='1627'> -7.7293683e+01 </wgt>
<wgt id='1628'> -7.7357558e+01 </wgt>
<wgt id='1629'> -7.7244481e+01 </wgt>
<wgt id='1630'> -7.7441256e+01 </wgt>
<wgt id='1631'> -7.7300187e+01 </wgt>
<wgt id='1632'> -7.7365547e+01 </wgt>
<wgt id='1633'> -7.7251021e+01 </wgt>
<wgt id='1634'> -7.7203397e+01 </wgt>
<wgt id='1635'> -7.7295555e+01 </wgt>
<wgt id='1636'> -7.7332401e+01 </wgt>
<wgt id='1637'> -7.7370668e+01 </wgt>
<wgt id='1638'> -7.7280194e+01 </wgt>
<wgt id='1639'> -7.7277136e+01 </wgt>
<wgt id='1640'> -7.7404469e+01 </wgt>
<wgt id='1641'> -7.7245153e+01 </wgt>
<wgt id='1642'> -7.7286615e+01 </wgt>
<wgt id='1643'> -7.7297645e+01 </wgt>
<wgt id='1644'> -7.7349180e+01 </wgt>
<wgt id='1645'> -7.7334559e+01 </wgt>
<wgt id='1646'> -7.7307703e+01 </wgt>
<wgt id='1647'> -7.7344575e+01 </wgt>
<wgt id='1648'> -7.7302304e+01 </wgt>
<wgt id='1649'> -7.7370249e+01 </wgt>
<wgt id='1650'> -7.7243993e+01 </wgt>
<wgt id='1651'> -7.7329216e+01 </wgt>
<wgt id='1652'> -7.7253139e+01 </wgt>
<wgt id='1653'> -7.7275828e+01 </wgt>
<wgt id='1654'> -7.7315932e+01 </wgt>
<wgt id='1655'> -7.7333029e+01 </wgt>
<wgt id='1656'> -7.7250167e+01 </wgt>
<wgt id='1657'> -7.7310415e+01 </wgt>
<wgt id='1658'> -7.7278482e+01 </wgt>
<wgt id='1659'> -7.7364090e+01 </wgt>
<wgt id='1660'> -7.7288018e+01 </wgt>
<wgt id='1661'> -7.7278428e+01 </wgt>
<wgt id='1662'> -7.7332001e+01 </wgt>
<wgt id='1663'> -7.7318181e+01 </wgt>
<wgt id='1664'> -7.7325099e+01 </wgt>
<wgt id='1665'> -7.7328228e+01 </wgt>
<wgt id='1666'> -7.7322509e+01 </wgt>
<wgt id='1667'> -7.7312734e+01 </wgt>
<wgt id='1668'> -7.7309216e+01 </wgt>
<wgt id='1669'> -7.7318782e+01 </wgt>
<wgt id='1670'> -7.4853144e+01 </wgt>
<wgt id='1671'> -7.9756571e+01 </wgt>
<wgt id='1672'> -7.7725115e+01 </wgt>
<wgt id='1673'> -7.7240948e+01 </wgt>
<wgt id='1674'> -7.6903314e+01 </wgt>
<wgt id='1675'> -7.7667646e+01 </wgt>
<wgt id='1676'> -7.9047875e+01 </wgt>
<wgt id='1677'> -7.8079792e+01 </wgt>
<wgt id='1678'> -7.8369753e+01 </wgt>
<wgt id='1679'> -7.7670026e+01 </wgt>
<wgt id='1680'> -7.7704566e+01 </wgt>
<wgt id='1681'> -7.8004554e+01 </wgt>
<wgt id='1682'> -7.7694894e+01 </wgt>
<wgt id='1683'> -7.8042959e+01 </wgt>
<wgt id='1684'> -7.7762800e+01 </wgt>
<wgt id='1685'> -7.7604029e+01 </wgt>
<wgt id='1686'> -7.7516793e+01 </wgt>
<wgt id='1687'> -7.7994238e+01 </wgt>
<wgt id='1688'> -7.8112183e+01 </wgt>
<wgt id='1689'> -7.6392713e+01 </wgt>
<wgt id='1690'> -7.7604969e+01 </wgt>
<wgt id='1691'> -7.7834485e+01 </wgt>
<wgt id='1692'> -7.7892895e+01 </wgt>
<wgt id='1693'> -7.7731737e+01 </wgt>
<wgt id='1694'> -7.7564399e+01 </wgt>
<wgt id='1695'> -7.7809222e+01 </wgt>
<wgt id='1696'> -7.7622938e+01 </wgt>
<wgt id='1697'> -7.7826430e+01 </wgt>
<wgt id='1698'> -7.6751190e+01 </wgt>
<wgt id='1699'> -7.7790372e+01 </wgt>
<wgt id='1700'> -7.7642890e+01 </wgt>
<wgt id='1701'> -7.7799715e+01 </wgt>
<wgt id='1702'> -7.7714449e+01 </wgt>
<wgt id='1703'> -7.4936833e+01 </wgt>
<wgt id='1704'> -8.0156778e+01 </wgt>
<wgt id='1705'> -7.7321442e+01 </wgt>
<wgt id='1706'> -7.7991399e+01 </wgt>
<wgt id='1707'> -7.7825838e+01 </wgt>
<wgt id='1708'> -7.7217446e+01 </wgt>
<wgt id='1709'> -7.6757386e+01 </wgt>
<wgt id='1710'> -7.6706950e+01 </wgt>
<wgt id='1711'> -7.7365739e+01 </wgt>
<wgt id='1712'> -7.7327677e+01 </wgt>
<wgt id='1713'> -7.7266157e+01 </wgt>
<wgt id='1714'> -7.6972692e+01 </wgt>
<wgt id='1715'> -7.8291345e+01 </wgt>
<wgt id='1716'> -7.7596559e+01 </wgt>
<wgt id='1717'> -7.7323014e+01 </wgt>
<wgt id='1718'> -7.7187034e+01 </wgt>
<wgt id='1719'> -7.7176687e+01 </wgt>
<wgt id='1720'> -7.6931551e+01 </wgt>
<wgt id='1721'> -7.7256002e+01 </wgt>
<wgt id='1722'> -7.7156187e+01 </wgt>
<wgt id='1723'> -7.7392852e+01 </wgt>
<wgt id='1724'> -7.7642090e+01 </wgt>
<wgt id='1725'> -7.7084150e+01 </wgt>
<wgt id='1726'> -7.6358650e+01 </wgt>
<wgt id='1727'> -7.7565099e+01 </wgt>
<wgt id='1728'> -7.7269524e+01 </wgt>
<wgt id='1729'> -7.7164583e+01 </wgt>
<wgt id='1730'> -7.7271185e+01 </wgt>
<wgt id='1731'> -7.7364036e+01 </wgt>
<wgt id='1732'> -7.7314696e+01 </wgt>
<wgt id='1733'> -7.7166521e+01 </wgt>
<wgt id='1734'> -7.7254596e+01 </wgt>
<wgt id='1735'> -7.7297686e+01 </wgt>
<wgt id='1736'> -7.4853144e+01 </wgt>
<wgt id='1737'> -7.9756571e+01 </wgt>
<wgt id='1738'> -7.9865765e+01 </wgt>
<wgt id='1739'> -7.9885872e+01 </wgt>
<wgt id='1740'> -7.9845570e+01 </wgt>
<wgt id='1741'> -7.9973998e+01 </wgt>
<wgt id='1742'> -7.9757221e+01 </wgt>
<wgt id='1743'> -7.9914528e+01 </wgt>
<wgt id='1744'> -7.9816858e+01 </wgt>
<wgt id='1745'> -7.9592068e+01 </wgt>
<wgt id='1746'> -8.0137067e+01 </wgt>
<wgt id='1747'> -7.9699576e+01 </wgt>
<wgt id='1748'> -7.9997362e+01 </wgt>
<wgt id='1749'> -8.0090768e+01 </wgt>
<wgt id='1750'> -7.9591880e+01 </wgt>
<wgt id='1751'> -7.9878610e+01 </wgt>
<wgt id='1752'> -7.9849514e+01 </wgt>
<wgt id='1753'> -8.0335197e+01 </wgt>
<wgt id='1754'> -7.9512332e+01 </wgt>
<wgt id='1755'> -8.0243006e+01 </wgt>
<wgt id='1756'> -7.9346360e+01 </wgt>
<wgt id='1757'> -7.8563170e+01 </wgt>
<wgt id='1758'> -8.1147673e+01 </wgt>
<wgt id='1759'> -7.8657607e+01 </wgt>
<wgt id='1760'> -8.0958456e+01 </wgt>
<wgt id='1761'> -7.9276019e+01 </wgt>
<wgt id='1762'> -8.0075934e+01 </wgt>
<wgt id='1763'> -8.0529380e+01 </wgt>
<wgt id='1764'> -7.9272902e+01 </wgt>
<wgt id='1765'> -7.9784741e+01 </wgt>
<wgt id='1766'> -7.9995635e+01 </wgt>
<wgt id='1767'> -7.9865765e+01 </wgt>
<wgt id='1768'> -8.1908391e+01 </wgt>
<wgt id='1769'> -7.7775522e+01 </wgt>
<wgt id='1770'> -8.6800116e+01 </wgt>
<wgt id='1771'> -8.6183723e+01 </wgt>
<wgt id='1772'> -8.0575211e+01 </wgt>
<wgt id='1773'> -7.9644285e+01 </wgt>
<wgt id='1774'> -7.9746694e+01 </wgt>
<wgt id='1775'> -7.9950320e+01 </wgt>
<wgt id='1776'> -7.9484809e+01 </wgt>
<wgt id='1777'> -8.0234057e+01 </wgt>
<wgt id='1778'> -7.9609062e+01 </wgt>
<wgt id='1779'> -8.0436473e+01 </wgt>
<wgt id='1780'> -8.0081299e+01 </wgt>
<wgt id='1781'> -7.9095633e+01 </wgt>
<wgt id='1782'> -7.9114448e+01 </wgt>
<wgt id='1783'> -7.9047124e+01 </wgt>
<wgt id='1784'> -7.9192809e+01 </wgt>
<wgt id='1785'> -7.8968307e+01 </wgt>
<wgt id='1786'> -7.9208509e+01 </wgt>
<wgt id='1787'> -7.8953167e+01 </wgt>
<wgt id='1788'> -7.8881351e+01 </wgt>
<wgt id='1789'> -7.9274450e+01 </wgt>
<wgt id='1790'> -7.9236257e+01 </wgt>
<wgt id='1791'> -7.8917948e+01 </wgt>
<wgt id='1792'> -7.8939371e+01 </wgt>
<wgt id='1793'> -7.9189478e+01 </wgt>
<wgt id='1794'> -7.8996352e+01 </wgt>
<wgt id='1795'> -7.9170665e+01 </wgt>
<wgt id='1796'> -7.9142485e+01 </wgt>
<wgt id='1797'> -7.9218890e+01 </wgt>
<wgt id='1798'> -7.8574743e+01 </wgt>
<wgt id='1799'> -7.9563116e+01 </wgt>
<wgt id='1800'> -7.7979036e+01 </wgt>
<wgt id='1801'> -8.0102078e+01 </wgt>
<wgt id='1802'> -7.9089242e+01 </wgt>
<wgt id='1803'> -7.8963642e+01 </wgt>
<wgt id='1804'> -7.9733171e+01 </wgt>
<wgt id='1805'> -7.8455412e+01 </wgt>
<wgt id='1806'> -7.9815742e+01 </wgt>
<wgt id='1807'> -7.8339194e+01 </wgt>
<wgt id='1808'> -7.9560768e+01 </wgt>
<wgt id='1809'> -7.8719207e+01 </wgt>
<wgt id='1810'> -7.8881742e+01 </wgt>
<wgt id='1811'> -8.0738529e+01 </wgt>
<wgt id='1812'> -7.6170622e+01 </wgt>
<wgt id='1813'> -8.4714409e+01 </wgt>
<wgt id='1814'> -8.3467604e+01 </wgt>
<wgt id='1815'> -8.1402069e+01 </wgt>
<wgt id='1816'> -7.8238473e+01 </wgt>
<wgt id='1817'> -7.8747294e+01 </wgt>
<wgt id='1818'> -7.8821365e+01 </wgt>
<wgt id='1819'> -7.7974432e+01 </wgt>
<wgt id='1820'> -8.1406300e+01 </wgt>
<wgt id='1821'> -7.8227925e+01 </wgt>
<wgt id='1822'> -7.8845283e+01 </wgt>
<wgt id='1823'> -7.6866316e+01 </wgt>
<wgt id='1824'> -7.9497163e+01 </wgt>
<wgt id='1825'> -7.9474416e+01 </wgt>
<wgt id='1826'> -7.9451491e+01 </wgt>
<wgt id='1827'> -7.9428671e+01 </wgt>
<wgt id='1828'> -7.9405904e+01 </wgt>
<wgt id='1829'> -7.9383034e+01 </wgt>
<wgt id='1830'> -7.9360237e+01 </wgt>
<wgt id='1831'> -7.9337422e+01 </wgt>
<wgt id='1832'> -7.9314654e+01 </wgt>
<wgt id='1833'> -7.9291778e+01 </wgt>
<wgt id='1834'> -7.9268933e+01 </wgt>
<wgt id='1835'> -7.9246248e+01 </wgt>
<wgt id='1836'> -7.9223387e+01 </wgt>
<wgt id='1837'> -7.9200563e+01 </wgt>
<wgt id='1838'> -7.9178218e+01 </wgt>
<wgt id='1839'> -7.9155386e+01 </wgt>
<wgt id='1840'> -7.9132477e+01 </wgt>
<wgt id='1841'> -7.9109791e+01 </wgt>
<wgt id='1842'> -7.9087001e+01 </wgt>
<wgt id='1843'> -7.9064152e+01 </wgt>
<wgt id='1844'> -7.9041507e+01 </wgt>
<wgt id='1845'> -7.9018700e+01 </wgt>
<wgt id='1846'> -7.8995898e+01 </wgt>
<wgt id='1847'> -7.8973144e+01 </wgt>
<wgt id='1848'> -7.8950380e+01 </wgt>
<wgt id='1849'> -7.8927555e+01 </wgt>
<wgt id='1850'> -7.8904820e+01 </wgt>
<wgt id='1851'> -7.8882439e+01 </wgt>
<wgt id='1852'> -7.8859656e+01 </wgt>
<wgt id='1853'> -7.8836940e+01 </wgt>
<wgt id='1854'> -7.8814198e+01 </wgt>
<wgt id='1855'> -7.6779129e+01 </wgt>
<wgt id='1856'> -7.7018382e+01 </wgt>
<wgt id='1857'> -7.6542631e+01 </wgt>
<wgt id='1858'> -7.6971032e+01 </wgt>
<wgt id='1859'> -7.6831794e+01 </wgt>
<wgt id='1860'> -7.6699014e+01 </wgt>
<wgt id='1861'> -7.7203339e+01 </wgt>
<wgt id='1862'> -7.7479706e+01 </wgt>
<wgt id='1863'> -7.7044241e+01 </wgt>
<wgt id='1864'> -7.6552950e+01 </wgt>
<wgt id='1865'> -7.7077949e+01 </wgt>
<wgt id='1866'> -7.7002512e+01 </wgt>
<wgt id='1867'> -7.6164130e+01 </wgt>
<wgt id='1868'> -7.6754639e+01 </wgt>
<wgt id='1869'> -7.6167795e+01 </wgt>
<wgt id='1870'> -7.7287882e+01 </wgt>
<wgt id='1871'> -7.6579717e+01 </wgt>
<wgt id='1872'> -7.6867191e+01 </wgt>
<wgt id='1873'> -7.6914517e+01 </wgt>
<wgt id='1874'> -7.6204786e+01 </wgt>
<wgt id='1875'> -7.6890643e+01 </wgt>
<wgt id='1876'> -7.6850330e+01 </wgt>
<wgt id='1877'> -7.6141864e+01 </wgt>
<wgt id='1878'> -7.6827553e+01 </wgt>
<wgt id='1879'> -7.6995041e+01 </wgt>
<wgt id='1880'> -7.6586291e+01 </wgt>
<wgt id='1881'> -7.6472495e+01 </wgt>
<wgt id='1882'> -7.6989355e+01 </wgt>
<wgt id='1883'> -7.6733811e+01 </wgt>
<wgt id='1884'> -7.6425747e+01 </wgt>
<wgt id='1885'> -7.6807382e+01 </wgt>
<wgt id='1886'> -7.6782798e+01 </wgt>
<wgt id='1887'> -7.7140199e+01 </wgt>
<wgt id='1888'> -7.6999367e+01 </wgt>
<wgt id='1889'> -7.6707424e+01 </wgt>
<wgt id='1890'> -7.7019126e+01 </wgt>
<wgt id='1891'> -7.6448291e+01 </wgt>
<wgt id='1892'> -7.7171135e+01 </wgt>
<wgt id='1893'> -7.7041180e+01 </wgt>
<wgt id='1894'> -7.6577331e+01 </wgt>
<wgt id='1895'> -7.6734778e+01 </wgt>
<wgt id='1896'> -7.6388792e+01 </wgt>
<wgt id='1897'> -7.6648252e+01 </wgt>
<wgt id='1898'> -7.6913178e+01 </wgt>
<wgt id='1899'> -7.6996516e+01 </wgt>
<wgt id='1900'> -7.6709093e+01 </wgt>
<wgt id='1901'> -7.6844604e+01 </wgt>
<wgt id='1902'> -7.6564599e+01 </wgt>
<wgt id='1903'> -7.6656349e+01 </wgt>
<wgt id='1904'> -7.6694561e+01 </wgt>
<wgt id='1905'> -7.6802575e+01 </wgt>
<wgt id='1906'> -7.6801076e+01 </wgt>
<wgt id='1907'> -7.6770179e+01 </wgt>
<wgt id='1908'> -7.6660462e+01 </wgt>
<wgt id='1909'> -7.6791244e+01 </wgt>
<wgt id='1910'> -7.6616947e+01 </wgt>
<wgt id='1911'> -7.7000967e+01 </wgt>
<wgt id='1912'> -7.6811352e+01 </wgt>
<wgt id='1913'> -7.6763960e+01 </wgt>
<wgt id='1914'> -7.6826101e+01 </wgt>
<wgt id='1915'> -7.6713179e+01 </wgt>
<wgt id='1916'> -7.6908509e+01 </wgt>
<wgt id='1917'> -7.6764765e+01 </wgt>
<wgt id='1918'> -7.6830364e+01 </wgt>
<wgt id='1919'> -7.6719173e+01 </wgt>
<wgt id='1920'> -7.6670021e+01 </wgt>
<wgt id='1921'> -7.6760925e+01 </wgt>
<wgt id='1922'> -7.6797059e+01 </wgt>
<wgt id='1923'> -7.6837067e+01 </wgt>
<wgt id='1924'> -7.6745542e+01 </wgt>
<wgt id='1925'> -7.6743268e+01 </wgt>
<wgt id='1926'> -7.6871534e+01 </wgt>
<wgt id='1927'> -7.6711718e+01 </wgt>
<wgt id='1928'> -7.6753038e+01 </wgt>
<wgt id='1929'> -7.6763526e+01 </wgt>
<wgt id='1930'> -7.6816031e+01 </wgt>
<wgt id='1931'> -7.6803664e+01 </wgt>
<wgt id='1932'> -7.6775169e+01 </wgt>
<wgt id='1933'> -7.6812186e+01 </wgt>
<wgt id='1934'> -7.6769128e+01 </wgt>
<wgt id='1935'> -7.6835619e+01 </wgt>
<wgt id='1936'> -7.6713328e+01 </wgt>
<wgt id='1937'> -7.6796394e+01 </wgt>
<wgt id='1938'> -7.6720417e+01 </wgt>
<wgt id='1939'> -7.6741693e+01 </wgt>
<wgt id='1940'> -7.6783840e+01 </wgt>
<wgt id='1941'> -7.6802455e+01 </wgt>
<wgt id='1942'> -7.6716188e+01 </wgt>
<wgt id='1943'> -7.6776581e+01 </wgt>
<wgt id='1944'> -7.6744667e+01 </wgt>
<wgt id='1945'> -7.6830143e+01 </wgt>
<wgt id='1946'> -7.6753637e+01 </wgt>
<wgt id='1947'> -7.6744170e+01 </wgt>
<wgt id='1948'> -7.6799189e+01 </wgt>
<wgt id='1949'> -7.6783348e+01 </wgt>
<wgt id='1950'> -7.6791752e+01 </wgt>
<wgt id='1951'> -7.6796215e+01 </wgt>
<wgt id='1952'> -7.6789695e+01 </wgt>
<wgt id='1953'> -7.6779569e+01 </wgt>
<wgt id='1954'> -7.6776756e+01 </wgt>
<wgt id='1955'> -7.6786095e+01 </wgt>
<wgt id='1956'> -7.6778620e+01 </wgt>
<wgt id='1957'> -7.6781916e+01 </wgt>
<wgt id='1958'> -7.6779667e+01 </wgt>
<wgt id='1959'> -7.6779754e+01 </wgt>
<wgt id='1960'> -7.6780697e+01 </wgt>
<wgt id='1961'> -7.6779358e+01 </wgt>
<wgt id='1962'> -7.6782512e+01 </wgt>
</rwgt>
</event>
<event npLO=" -1 " npNLO=" 1 ">
 7      1 +1.5146096e+02 2.68084220e+02 7.54677110e-03 1.02757220e-01
        2 -1    0    0  502    0 +0.0000000000e+00 +0.0000000000e+00 +1.1016217000e+03 1.1016217000e+03 0.0000000000e+00 0.0000e+00 9.0000e+00
       21 -1    0    0  501  502 +0.0000000000e+00 +0.0000000000e+00 -7.0539263000e+01 7.0539263000e+01 0.0000000000e+00 0.0000e+00 9.0000e+00
       23  2    1    2    0    0 -2.3934578000e+02 -1.2075905000e+02 +4.3514361000e+02 5.1869922000e+02 8.8486008000e+01 0.0000e+00 0.0000e+00
       13  1    3    3    0    0 -6.2314038000e+01 -1.2508013000e+01 +7.4423986000e+01 9.7869400000e+01 0.0000000000e+00 0.0000e+00 9.0000e+00
      -13  1    3    3    0    0 -1.0899620000e+02 -8.8640053000e+01 +2.8129317000e+02 3.1442500000e+02 0.0000000000e+00 0.0000e+00 9.0000e+00
       22  1    3    3    0    0 -6.8035544000e+01 -1.9610986000e+01 +7.9426446000e+01 1.0640482000e+02 0.0000000000e+00 0.0000e+00 9.0000e+00
        2  1    1    2  501    0 +2.3934578000e+02 +1.2075905000e+02 +5.9593879000e+02 6.5346170000e+02 0.0000000000e+00 0.0000e+00 9.0000e+00
#aMCatNLO 1  0  0  2  2 0.35823270E+03 0.00000000E+00 -9  7  0 0.00000000E+00 0.00000000E+00 0.00000000E+00 0.00000000E+00 0.00000000E+00
<rwgt>
<wgt id='1001'> +1.5147000e+02 </wgt>
<wgt id='1002'> +1.5147000e+02 </wgt>
<wgt id='1003'> +1.4614000e+02 </wgt>
<wgt id='1004'> +1.5006000e+02 </wgt>
<wgt id='1005'> +1.5355000e+02 </wgt>
<wgt id='1006'> +1.5350000e+02 </wgt>
<wgt id='1007'> +1.4628000e+02 </wgt>
<wgt id='1008'> +1.5197000e+02 </wgt>
<wgt id='1009'> +1.5195000e+02 </wgt>
<wgt id='1010'> +1.4905000e+02 </wgt>
<wgt id='1011'> +1.5156000e+02 </wgt>
<wgt id='1012'> +1.4923000e+02 </wgt>
<wgt id='1013'> +1.5188000e+02 </wgt>
<wgt id='1014'> +1.5406000e+02 </wgt>
<wgt id='1015'> +1.5387000e+02 </wgt>
<wgt id='1016'> +1.5003000e+02 </wgt>
<wgt id='1017'> +1.5110000e+02 </wgt>
<wgt id='1018'> +1.5012000e+02 </wgt>
<wgt id='1019'> +1.4896000e+02 </wgt>
<wgt id='1020'> +1.4786000e+02 </wgt>
<wgt id='1021'> +1.5156000e+02 </wgt>
<wgt id='1022'> +1.4962000e+02 </wgt>
<wgt id='1023'> +1.5390000e+02 </wgt>
<wgt id='1024'> +1.4950000e+02 </wgt>
<wgt id='1025'> +1.5906000e+02 </wgt>
<wgt id='1026'> +1.5091000e+02 </wgt>
<wgt id='1027'> +1.5239000e+02 </wgt>
<wgt id='1028'> +1.5172000e+02 </wgt>
<wgt id='1029'> +1.4843000e+02 </wgt>
<wgt id='1030'> +1.5180000e+02 </wgt>
<wgt id='1031'> +1.4936000e+02 </wgt>
<wgt id='1032'> +1.5236000e+02 </wgt>
<wgt id='1033'> +1.5041000e+02 </wgt>
<wgt id='1034'> +1.5267000e+02 </wgt>
<wgt id='1035'> +1.5353000e+02 </wgt>
<wgt id='1036'> +1.5287000e+02 </wgt>
<wgt id='1037'> +1.5450000e+02 </wgt>
<wgt id='1038'> +1.5356000e+02 </wgt>
<wgt id='1039'> +1.4908000e+02 </wgt>
<wgt id='1040'> +1.5085000e+02 </wgt>
<wgt id='1041'> +1.4845000e+02 </wgt>
<wgt id='1042'> +1.5232000e+02 </wgt>
<wgt id='1043'> +1.5380000e+02 </wgt>
<wgt id='1044'> +1.5325000e+02 </wgt>
<wgt id='1045'> +1.5287000e+02 </wgt>
<wgt id='1046'> +1.5046000e+02 </wgt>
<wgt id='1047'> +1.5164000e+02 </wgt>
<wgt id='1048'> +1.5254000e+02 </wgt>
<wgt id='1049'> +1.4965000e+02 </wgt>
<wgt id='1050'> +1.4884000e+02 </wgt>
<wgt id='1051'> +1.5323000e+02 </wgt>
<wgt id='1052'> +1.5248000e+02 </wgt>
<wgt id='1053'> +1.5318000e+02 </wgt>
<wgt id='1054'> +1.5223000e+02 </wgt>
<wgt id='1055'> +1.5438000e+02 </wgt>
<wgt id='1056'> +1.5087000e+02 </wgt>
<wgt id='1057'> +1.5261000e+02 </wgt>
<wgt id='1058'> +1.4688000e+02 </wgt>
<wgt id='1059'> +1.5539000e+02 </wgt>
<wgt id='1060'> +1.5261000e+02 </wgt>
<wgt id='1061'> +1.4934000e+02 </wgt>
<wgt id='1062'> +1.5151000e+02 </wgt>
<wgt id='1063'> +1.5331000e+02 </wgt>
<wgt id='1064'> +1.5079000e+02 </wgt>
<wgt id='1065'> +1.5670000e+02 </wgt>
<wgt id='1066'> +1.4522000e+02 </wgt>
<wgt id='1067'> +1.5534000e+02 </wgt>
<wgt id='1068'> +1.4997000e+02 </wgt>
<wgt id='1069'> +1.5620000e+02 </wgt>
<wgt id='1070'> +1.5107000e+02 </wgt>
<wgt id='1071'> +1.4986000e+02 </wgt>
<wgt id='1072'> +1.4886000e+02 </wgt>
<wgt id='1073'> +1.5495000e+02 </wgt>
<wgt id='1074'> +1.5299000e+02 </wgt>
<wgt id='1075'> +1.4805000e+02 </wgt>
<wgt id='1076'> +1.5469000e+02 </wgt>
<wgt id='1077'> +1.5132000e+02 </wgt>
<wgt id='1078'> +1.5238000e+02 </wgt>
<wgt id='1079'> +1.5038000e+02 </wgt>
<wgt id='1080'> +1.5468000e+02 </wgt>
<wgt id='1081'> +1.5296000e+02 </wgt>
<wgt id='1082'> +1.5044000e+02 </wgt>
<wgt id='1083'> +1.5252000e+02 </wgt>
<wgt id='1084'> +1.5229000e+02 </wgt>
<wgt id='1085'> +1.4795000e+02 </wgt>
<wgt id='1086'> +1.5104000e+02 </wgt>
<wgt id='1087'> +1.4921000e+02 </wgt>
<wgt id='1088'> +1.4946000e+02 </wgt>
<wgt id='1089'> +1.5176000e+02 </wgt>
<wgt id='1090'> +1.5366000e+02 </wgt>
<wgt id='1091'> +1.4980000e+02 </wgt>
<wgt id='1092'> +1.5021000e+02 </wgt>
<wgt id='1093'> +1.4905000e+02 </wgt>
<wgt id='1094'> +1.5325000e+02 </wgt>
<wgt id='1095'> +1.4905000e+02 </wgt>
<wgt id='1096'> +1.5232000e+02 </wgt>
<wgt id='1097'> +1.4644000e+02 </wgt>
<wgt id='1098'> +1.5265000e+02 </wgt>
<wgt id='1099'> +1.5079000e+02 </wgt>
<wgt id='1100'> +1.5693000e+02 </wgt>
<wgt id='1101'> +1.5356000e+02 </wgt>
<wgt id='1102'> +1.4590000e+02 </wgt>
<wgt id='1103'> +1.5098000e+02 </wgt>
<wgt id='1104'> +1.5153000e+02 </wgt>
<wgt id='1105'> +1.5146096e+02 </wgt>
<wgt id='1106'> +7.5637852e+01 </wgt>
<wgt id='1107'> +7.4425925e+01 </wgt>
<wgt id='1108'> +7.4382604e+01 </wgt>
<wgt id='1109'> +7.4244029e+01 </wgt>
<wgt id='1110'> +7.3169509e+01 </wgt>
<wgt id='1111'> +7.6725009e+01 </wgt>
<wgt id='1112'> +7.6680659e+01 </wgt>
<wgt id='1113'> +7.5332344e+01 </wgt>
<wgt id='1114'> +7.6478320e+01 </wgt>
<wgt id='1115'> +7.5897112e+01 </wgt>
<wgt id='1116'> +7.7033683e+01 </wgt>
<wgt id='1117'> +7.6382016e+01 </wgt>
<wgt id='1118'> +7.5845456e+01 </wgt>
<wgt id='1119'> +7.6905753e+01 </wgt>
<wgt id='1120'> +7.6379174e+01 </wgt>
<wgt id='1121'> +7.7499851e+01 </wgt>
<wgt id='1122'> +7.7325495e+01 </wgt>
<wgt id='1123'> +7.6817586e+01 </wgt>
<wgt id='1124'> +7.2823954e+01 </wgt>
<wgt id='1125'> +7.6691432e+01 </wgt>
<wgt id='1126'> +7.5656579e+01 </wgt>
<wgt id='1127'> +7.5670546e+01 </wgt>
<wgt id='1128'> +7.7480967e+01 </wgt>
<wgt id='1129'> +7.8330094e+01 </wgt>
<wgt id='1130'> +7.6760227e+01 </wgt>
<wgt id='1131'> +7.6449676e+01 </wgt>
<wgt id='1132'> +7.6678267e+01 </wgt>
<wgt id='1133'> +7.7262346e+01 </wgt>
<wgt id='1134'> +7.6539595e+01 </wgt>
<wgt id='1135'> +7.7096437e+01 </wgt>
<wgt id='1136'> +7.7690386e+01 </wgt>
<wgt id='1137'> +7.7287009e+01 </wgt>
<wgt id='1138'> +7.5589488e+01 </wgt>
<wgt id='1139'> +7.7599064e+01 </wgt>
<wgt id='1140'> +7.8859605e+01 </wgt>
<wgt id='1141'> +7.3742869e+01 </wgt>
<wgt id='1142'> +7.6742349e+01 </wgt>
<wgt id='1143'> +7.6552969e+01 </wgt>
<wgt id='1144'> +7.6238533e+01 </wgt>
<wgt id='1145'> +7.5965931e+01 </wgt>
<wgt id='1146'> +7.6148017e+01 </wgt>
<wgt id='1147'> +7.7027290e+01 </wgt>
<wgt id='1148'> +7.4735026e+01 </wgt>
<wgt id='1149'> +7.7018026e+01 </wgt>
<wgt id='1150'> +7.7604940e+01 </wgt>
<wgt id='1151'> +7.7266468e+01 </wgt>
<wgt id='1152'> +7.6564029e+01 </wgt>
<wgt id='1153'> +7.6270591e+01 </wgt>
<wgt id='1154'> +7.6946681e+01 </wgt>
<wgt id='1155'> +7.7289984e+01 </wgt>
<wgt id='1156'> +7.5198150e+01 </wgt>
<wgt id='1157'> +7.5111039e+01 </wgt>
<wgt id='1158'> +7.5380877e+01 </wgt>
<wgt id='1159'> +7.7971780e+01 </wgt>
<wgt id='1160'> +7.6398601e+01 </wgt>
<wgt id='1161'> +7.5152812e+01 </wgt>
<wgt id='1162'> +7.6217787e+01 </wgt>
<wgt id='1163'> +7.7352917e+01 </wgt>
<wgt id='1164'> +7.5568976e+01 </wgt>
<wgt id='1165'> +7.6503724e+01 </wgt>
<wgt id='1166'> +7.7051929e+01 </wgt>
<wgt id='1167'> +7.7044814e+01 </wgt>
<wgt id='1168'> +7.6424181e+01 </wgt>
<wgt id='1169'> +7.7530076e+01 </wgt>
<wgt id='1170'> +7.5678155e+01 </wgt>
<wgt id='1171'> +7.6554255e+01 </wgt>
<wgt id='1172'> +7.7569524e+01 </wgt>
<wgt id='1173'> +7.8912882e+01 </wgt>
<wgt id='1174'> +7.7861462e+01 </wgt>
<wgt id='1175'> +7.4657582e+01 </wgt>
<wgt id='1176'> +7.6103664e+01 </wgt>
<wgt id='1177'> +7.6106009e+01 </wgt>
<wgt id='1178'> +7.7349098e+01 </wgt>
<wgt id='1179'> +7.6982522e+01 </wgt>
<wgt id='1180'> +7.7881442e+01 </wgt>
<wgt id='1181'> +7.5892794e+01 </wgt>
<wgt id='1182'> +7.6315544e+01 </wgt>
<wgt id='1183'> +7.6199245e+01 </wgt>
<wgt id='1184'> +7.4584658e+01 </wgt>
<wgt id='1185'> +7.7802051e+01 </wgt>
<wgt id='1186'> +7.5783474e+01 </wgt>
<wgt id='1187'> +7.6822304e+01 </wgt>
<wgt id='1188'> +7.6715339e+01 </wgt>
<wgt id='1189'> +7.5975429e+01 </wgt>
<wgt id='1190'> +7.7820829e+01 </wgt>
<wgt id='1191'> +7.4653401e+01 </wgt>
<wgt id='1192'> +7.8197495e+01 </wgt>
<wgt id='1193'> +7.7022142e+01 </wgt>
<wgt id='1194'> +7.4444596e+01 </wgt>
<wgt id='1195'> +7.5477396e+01 </wgt>
<wgt id='1196'> +7.6760227e+01 </wgt>
<wgt id='1197'> +7.4163263e+01 </wgt>
<wgt id='1198'> +7.6784091e+01 </wgt>
<wgt id='1199'> +7.7200185e+01 </wgt>
<wgt id='1200'> +7.3926590e+01 </wgt>
<wgt id='1201'> +7.7656084e+01 </wgt>
<wgt id='1202'> +7.4199185e+01 </wgt>
<wgt id='1203'> +7.4716590e+01 </wgt>
<wgt id='1204'> +7.6374106e+01 </wgt>
<wgt id='1205'> +7.7418868e+01 </wgt>
<wgt id='1206'> +7.7315226e+01 </wgt>
<wgt id='1207'> +7.6938255e+01 </wgt>
<wgt id='1208'> +7.5456775e+01 </wgt>
<wgt id='1209'> +7.5138119e+01 </wgt>
<wgt id='1210'> +7.7394677e+01 </wgt>
<wgt id='1211'> +7.4917092e+01 </wgt>
<wgt id='1212'> +7.6871544e+01 </wgt>
<wgt id='1213'> +7.7663177e+01 </wgt>
<wgt id='1214'> +7.7775812e+01 </wgt>
<wgt id='1215'> +7.5730109e+01 </wgt>
<wgt id='1216'> +7.5974353e+01 </wgt>
<wgt id='1217'> +7.6143777e+01 </wgt>
<wgt id='1218'> +7.5769175e+01 </wgt>
<wgt id='1219'> +7.6187631e+01 </wgt>
<wgt id='1220'> +7.5872359e+01 </wgt>
<wgt id='1221'> +7.6231523e+01 </wgt>
<wgt id='1222'> +7.6151485e+01 </wgt>
<wgt id='1223'> +7.6164327e+01 </wgt>
<wgt id='1224'> +7.5831693e+01 </wgt>
<wgt id='1225'> +7.6084028e+01 </wgt>
<wgt id='1226'> +7.5974840e+01 </wgt>
<wgt id='1227'> +7.6009726e+01 </wgt>
<wgt id='1228'> +7.6040858e+01 </wgt>
<wgt id='1229'> +7.5630887e+01 </wgt>
<wgt id='1230'> +7.6237897e+01 </wgt>
<wgt id='1231'> +7.6061473e+01 </wgt>
<wgt id='1232'> +7.5842522e+01 </wgt>
<wgt id='1233'> +7.6172186e+01 </wgt>
<wgt id='1234'> +7.5930143e+01 </wgt>
<wgt id='1235'> +7.5735657e+01 </wgt>
<wgt id='1236'> +7.5774290e+01 </wgt>
<wgt id='1237'> +7.5932090e+01 </wgt>
<wgt id='1238'> +7.6079455e+01 </wgt>
<wgt id='1239'> +7.6182921e+01 </wgt>
<wgt id='1240'> +7.5932135e+01 </wgt>
<wgt id='1241'> +7.5810489e+01 </wgt>
<wgt id='1242'> +7.5949272e+01 </wgt>
<wgt id='1243'> +7.5903575e+01 </wgt>
<wgt id='1244'> +7.6166381e+01 </wgt>
<wgt id='1245'> +7.6206971e+01 </wgt>
<wgt id='1246'> +7.5264564e+01 </wgt>
<wgt id='1247'> +7.5658003e+01 </wgt>
<wgt id='1248'> +7.6136235e+01 </wgt>
<wgt id='1249'> +7.6065576e+01 </wgt>
<wgt id='1250'> +7.5965023e+01 </wgt>
<wgt id='1251'> +7.6167838e+01 </wgt>
<wgt id='1252'> +7.6060403e+01 </wgt>
<wgt id='1253'> +7.5742099e+01 </wgt>
<wgt id='1254'> +7.6035948e+01 </wgt>
<wgt id='1255'> +7.5972349e+01 </wgt>
<wgt id='1256'> +7.5923842e+01 </wgt>
<wgt id='1257'> +7.6077292e+01 </wgt>
<wgt id='1258'> +7.6060428e+01 </wgt>
<wgt id='1259'> +7.5850591e+01 </wgt>
<wgt id='1260'> +7.5994955e+01 </wgt>
<wgt id='1261'> +7.6028652e+01 </wgt>
<wgt id='1262'> +7.5919244e+01 </wgt>
<wgt id='1263'> +7.5938694e+01 </wgt>
<wgt id='1264'> +7.6068883e+01 </wgt>
<wgt id='1265'> +7.5923135e+01 </wgt>
<wgt id='1266'> +7.5918957e+01 </wgt>
<wgt id='1267'> +7.6071310e+01 </wgt>
<wgt id='1268'> +7.6082024e+01 </wgt>
<wgt id='1269'> +7.5935415e+01 </wgt>
<wgt id='1270'> +7.5979396e+01 </wgt>
<wgt id='1271'> +7.5892254e+01 </wgt>
<wgt id='1272'> +7.5974095e+01 </wgt>
<wgt id='1273'> +7.6025263e+01 </wgt>
<wgt id='1274'> +7.5981272e+01 </wgt>
<wgt id='1275'> +7.5981494e+01 </wgt>
<wgt id='1276'> +7.5956236e+01 </wgt>
<wgt id='1277'> +7.5935555e+01 </wgt>
<wgt id='1278'> +7.5869230e+01 </wgt>
<wgt id='1279'> +7.5995534e+01 </wgt>
<wgt id='1280'> +7.5910669e+01 </wgt>
<wgt id='1281'> +7.5942189e+01 </wgt>
<wgt id='1282'> +7.5950826e+01 </wgt>
<wgt id='1283'> +7.5890634e+01 </wgt>
<wgt id='1284'> +7.6035410e+01 </wgt>
<wgt id='1285'> +7.5945252e+01 </wgt>
<wgt id='1286'> +7.5844801e+01 </wgt>
<wgt id='1287'> +7.5935356e+01 </wgt>
<wgt id='1288'> +7.5923989e+01 </wgt>
<wgt id='1289'> +7.5921071e+01 </wgt>
<wgt id='1290'> +7.6087745e+01 </wgt>
<wgt id='1291'> +7.5994277e+01 </wgt>
<wgt id='1292'> +7.5977701e+01 </wgt>
<wgt id='1293'> +7.5894401e+01 </wgt>
<wgt id='1294'> +7.6023964e+01 </wgt>
<wgt id='1295'> +7.5994128e+01 </wgt>
<wgt id='1296'> +7.5971052e+01 </wgt>
<wgt id='1297'> +7.6034868e+01 </wgt>
<wgt id='1298'> +7.5986743e+01 </wgt>
<wgt id='1299'> +7.6026988e+01 </wgt>
<wgt id='1300'> +7.5970027e+01 </wgt>
<wgt id='1301'> +7.5999182e+01 </wgt>
<wgt id='1302'> +7.5945817e+01 </wgt>
<wgt id='1303'> +7.5980069e+01 </wgt>
<wgt id='1304'> +7.5964149e+01 </wgt>
<wgt id='1305'> +7.5978553e+01 </wgt>
<wgt id='1306'> +7.6014574e+01 </wgt>
<wgt id='1307'> +7.5990766e+01 </wgt>
<wgt id='1308'> +7.5998967e+01 </wgt>
<wgt id='1309'> +7.5964525e+01 </wgt>
<wgt id='1310'> +7.5956400e+01 </wgt>
<wgt id='1311'> +7.5990804e+01 </wgt>
<wgt id='1312'> +7.5923686e+01 </wgt>
<wgt id='1313'> +7.5921127e+01 </wgt>
<wgt id='1314'> +7.6007799e+01 </wgt>
<wgt id='1315'> +7.5998705e+01 </wgt>
<wgt id='1316'> +7.6024633e+01 </wgt>
<wgt id='1317'> +7.5512823e+01 </wgt>
<wgt id='1318'> +7.6589082e+01 </wgt>
<wgt id='1319'> +7.6178847e+01 </wgt>
<wgt id='1320'> +7.5870793e+01 </wgt>
<wgt id='1321'> +7.6031111e+01 </wgt>
<wgt id='1322'> +7.5852368e+01 </wgt>
<wgt id='1323'> +7.6593715e+01 </wgt>
<wgt id='1324'> +7.5392648e+01 </wgt>
<wgt id='1325'> +7.5355264e+01 </wgt>
<wgt id='1326'> +7.6028528e+01 </wgt>
<wgt id='1327'> +7.6051617e+01 </wgt>
<wgt id='1328'> +7.5636158e+01 </wgt>
<wgt id='1329'> +7.4994535e+01 </wgt>
<wgt id='1330'> +7.6711034e+01 </wgt>
<wgt id='1331'> +7.7448721e+01 </wgt>
<wgt id='1332'> +7.4779689e+01 </wgt>
<wgt id='1333'> +7.4634569e+01 </wgt>
<wgt id='1334'> +7.6582404e+01 </wgt>
<wgt id='1335'> +7.6160414e+01 </wgt>
<wgt id='1336'> +7.5562332e+01 </wgt>
<wgt id='1337'> +7.6028361e+01 </wgt>
<wgt id='1338'> +7.5674403e+01 </wgt>
<wgt id='1339'> +7.6791734e+01 </wgt>
<wgt id='1340'> +7.4879471e+01 </wgt>
<wgt id='1341'> +7.5725455e+01 </wgt>
<wgt id='1342'> +7.5990823e+01 </wgt>
<wgt id='1343'> +7.5320669e+01 </wgt>
<wgt id='1344'> +7.6488477e+01 </wgt>
<wgt id='1345'> +7.5455614e+01 </wgt>
<wgt id='1346'> +7.6226780e+01 </wgt>
<wgt id='1347'> +7.5964488e+01 </wgt>
<wgt id='1348'> +7.5733594e+01 </wgt>
<wgt id='1349'> +7.5431300e+01 </wgt>
<wgt id='1350'> +7.6023714e+01 </wgt>
<wgt id='1351'> +7.6016150e+01 </wgt>
<wgt id='1352'> +7.5681973e+01 </wgt>
<wgt id='1353'> +7.5882993e+01 </wgt>
<wgt id='1354'> +7.5823240e+01 </wgt>
<wgt id='1355'> +7.6037734e+01 </wgt>
<wgt id='1356'> +7.5685194e+01 </wgt>
<wgt id='1357'> +7.6116423e+01 </wgt>
<wgt id='1358'> +7.5503457e+01 </wgt>
<wgt id='1359'> +7.5583643e+01 </wgt>
<wgt id='1360'> +7.6003430e+01 </wgt>
<wgt id='1361'> +7.6302080e+01 </wgt>
<wgt id='1362'> +7.5458185e+01 </wgt>
<wgt id='1363'> +7.6050016e+01 </wgt>
<wgt id='1364'> +7.5740767e+01 </wgt>
<wgt id='1365'> +7.5742795e+01 </wgt>
<wgt id='1366'> +7.5742248e+01 </wgt>
<wgt id='1367'> +7.5570702e+01 </wgt>
<wgt id='1368'> +7.6145881e+01 </wgt>
<wgt id='1369'> +7.6070562e+01 </wgt>
<wgt id='1370'> +7.5194006e+01 </wgt>
<wgt id='1371'> +7.6305909e+01 </wgt>
<wgt id='1372'> +7.6659067e+01 </wgt>
<wgt id='1373'> +7.4959689e+01 </wgt>
<wgt id='1374'> +7.6217021e+01 </wgt>
<wgt id='1375'> +7.5471881e+01 </wgt>
<wgt id='1376'> +7.6243867e+01 </wgt>
<wgt id='1377'> +7.5551846e+01 </wgt>
<wgt id='1378'> +7.6028127e+01 </wgt>
<wgt id='1379'> +7.5735765e+01 </wgt>
<wgt id='1380'> +7.5564249e+01 </wgt>
<wgt id='1381'> +7.5731921e+01 </wgt>
<wgt id='1382'> +7.0604040e+01 </wgt>
<wgt id='1383'> +7.4870875e+01 </wgt>
<wgt id='1384'> +7.5408802e+01 </wgt>
<wgt id='1385'> +7.4549191e+01 </wgt>
<wgt id='1386'> +7.4598381e+01 </wgt>
<wgt id='1387'> +7.4493131e+01 </wgt>
<wgt id='1388'> +7.4436630e+01 </wgt>
<wgt id='1389'> +7.4741595e+01 </wgt>
<wgt id='1390'> +7.4432667e+01 </wgt>
<wgt id='1391'> +7.4687244e+01 </wgt>
<wgt id='1392'> +7.4678687e+01 </wgt>
<wgt id='1393'> +7.4458501e+01 </wgt>
<wgt id='1394'> +7.4742939e+01 </wgt>
<wgt id='1395'> +7.4306799e+01 </wgt>
<wgt id='1396'> +7.4473644e+01 </wgt>
<wgt id='1397'> +7.4588205e+01 </wgt>
<wgt id='1398'> +7.4297700e+01 </wgt>
<wgt id='1399'> +7.4736313e+01 </wgt>
<wgt id='1400'> +7.4757222e+01 </wgt>
<wgt id='1401'> +7.4385643e+01 </wgt>
<wgt id='1402'> +7.4866129e+01 </wgt>
<wgt id='1403'> +7.4404006e+01 </wgt>
<wgt id='1404'> +7.3469550e+01 </wgt>
<wgt id='1405'> +7.5067689e+01 </wgt>
<wgt id='1406'> +7.4505193e+01 </wgt>
<wgt id='1407'> +7.4622846e+01 </wgt>
<wgt id='1408'> +7.4570167e+01 </wgt>
<wgt id='1409'> +7.4499792e+01 </wgt>
<wgt id='1410'> +7.4739768e+01 </wgt>
<wgt id='1411'> +7.4055692e+01 </wgt>
<wgt id='1412'> +7.4946196e+01 </wgt>
<wgt id='1413'> +7.4073073e+01 </wgt>
<wgt id='1414'> +7.4445754e+01 </wgt>
<wgt id='1415'> +7.4522420e+01 </wgt>
<wgt id='1416'> +7.4642258e+01 </wgt>
<wgt id='1417'> +7.4523492e+01 </wgt>
<wgt id='1418'> +7.4502879e+01 </wgt>
<wgt id='1419'> +7.4619071e+01 </wgt>
<wgt id='1420'> +7.4464052e+01 </wgt>
<wgt id='1421'> +7.4468845e+01 </wgt>
<wgt id='1422'> +7.4671346e+01 </wgt>
<wgt id='1423'> +7.4420758e+01 </wgt>
<wgt id='1424'> +7.4828577e+01 </wgt>
<wgt id='1425'> +7.4058211e+01 </wgt>
<wgt id='1426'> +7.4600909e+01 </wgt>
<wgt id='1427'> +7.4496609e+01 </wgt>
<wgt id='1428'> +7.4616162e+01 </wgt>
<wgt id='1429'> +7.4494851e+01 </wgt>
<wgt id='1430'> +7.4585056e+01 </wgt>
<wgt id='1431'> +7.4529556e+01 </wgt>
<wgt id='1432'> +7.4526353e+01 </wgt>
<wgt id='1433'> +7.4582654e+01 </wgt>
<wgt id='1434'> +7.4588302e+01 </wgt>
<wgt id='1435'> +7.4760321e+01 </wgt>
<wgt id='1436'> +8.2789522e+01 </wgt>
<wgt id='1437'> +8.2782377e+01 </wgt>
<wgt id='1438'> +8.2784010e+01 </wgt>
<wgt id='1439'> +8.2788059e+01 </wgt>
<wgt id='1440'> +8.2869485e+01 </wgt>
<wgt id='1441'> +8.2810554e+01 </wgt>
<wgt id='1442'> +8.2820209e+01 </wgt>
<wgt id='1443'> +8.2935255e+01 </wgt>
<wgt id='1444'> +8.2645820e+01 </wgt>
<wgt id='1445'> +8.2627424e+01 </wgt>
<wgt id='1446'> +8.2834505e+01 </wgt>
<wgt id='1447'> +8.2926895e+01 </wgt>
<wgt id='1448'> +8.2769829e+01 </wgt>
<wgt id='1449'> +8.2789908e+01 </wgt>
<wgt id='1450'> +8.2754611e+01 </wgt>
<wgt id='1451'> +8.2898328e+01 </wgt>
<wgt id='1452'> +8.2593860e+01 </wgt>
<wgt id='1453'> +8.2726926e+01 </wgt>
<wgt id='1454'> +8.2805968e+01 </wgt>
<wgt id='1455'> +8.2679563e+01 </wgt>
<wgt id='1456'> +8.2577561e+01 </wgt>
<wgt id='1457'> +8.2823414e+01 </wgt>
<wgt id='1458'> +8.2567153e+01 </wgt>
<wgt id='1459'> +8.2630338e+01 </wgt>
<wgt id='1460'> +8.2947359e+01 </wgt>
<wgt id='1461'> +8.2974929e+01 </wgt>
<wgt id='1462'> +8.2932913e+01 </wgt>
<wgt id='1463'> +8.2702183e+01 </wgt>
<wgt id='1464'> +8.3240335e+01 </wgt>
<wgt id='1465'> +7.7588662e+01 </wgt>
<wgt id='1466'> +7.5520363e+01 </wgt>
<wgt id='1467'> +7.5286950e+01 </wgt>
<wgt id='1468'> +7.5645452e+01 </wgt>
<wgt id='1469'> +7.5696423e+01 </wgt>
<wgt id='1470'> +7.5322230e+01 </wgt>
<wgt id='1471'> +7.5460505e+01 </wgt>
<wgt id='1472'> +7.5332942e+01 </wgt>
<wgt id='1473'> +7.5658405e+01 </wgt>
<wgt id='1474'> +7.5759599e+01 </wgt>
<wgt id='1475'> +7.5227172e+01 </wgt>
<wgt id='1476'> +7.5742224e+01 </wgt>
<wgt id='1477'> +7.5433560e+01 </wgt>
<wgt id='1478'> +7.5051519e+01 </wgt>
<wgt id='1479'> +7.5984862e+01 </wgt>
<wgt id='1480'> +7.5242929e+01 </wgt>
<wgt id='1481'> +7.5466702e+01 </wgt>
<wgt id='1482'> +7.5437494e+01 </wgt>
<wgt id='1483'> +7.5334825e+01 </wgt>
<wgt id='1484'> +7.5821987e+01 </wgt>
<wgt id='1485'> +7.5334610e+01 </wgt>
<wgt id='1486'> +7.5526780e+01 </wgt>
<wgt id='1487'> +7.5599638e+01 </wgt>
<wgt id='1488'> +7.5306062e+01 </wgt>
<wgt id='1489'> +7.5873530e+01 </wgt>
<wgt id='1490'> +7.5441337e+01 </wgt>
<wgt id='1491'> +7.5891710e+01 </wgt>
<wgt id='1492'> +7.5553870e+01 </wgt>
<wgt id='1493'> +7.5290312e+01 </wgt>
<wgt id='1494'> +7.5874349e+01 </wgt>
<wgt id='1495'> +7.5458080e+01 </wgt>
<wgt id='1496'> +7.5348536e+01 </wgt>
<wgt id='1497'> +7.5547824e+01 </wgt>
<wgt id='1498'> +7.5453363e+01 </wgt>
<wgt id='1499'> +7.5379211e+01 </wgt>
<wgt id='1500'> +7.5556070e+01 </wgt>
<wgt id='1501'> +7.5736427e+01 </wgt>
<wgt id='1502'> +7.5425121e+01 </wgt>
<wgt id='1503'> +7.5431298e+01 </wgt>
<wgt id='1504'> +7.5518544e+01 </wgt>
<wgt id='1505'> +7.5607024e+01 </wgt>
<wgt id='1506'> +7.5638484e+01 </wgt>
<wgt id='1507'> +7.5646446e+01 </wgt>
<wgt id='1508'> +7.5610953e+01 </wgt>
<wgt id='1509'> +7.5402751e+01 </wgt>
<wgt id='1510'> +7.5651073e+01 </wgt>
<wgt id='1511'> +7.5630250e+01 </wgt>
<wgt id='1512'> +7.5501563e+01 </wgt>
<wgt id='1513'> +7.5431915e+01 </wgt>
<wgt id='1514'> +7.5352080e+01 </wgt>
<wgt id='1515'> +7.5544144e+01 </wgt>
<wgt id='1516'> +7.5481061e+01 </wgt>
<wgt id='1517'> +7.5435895e+01 </wgt>
<wgt id='1518'> +7.5525650e+01 </wgt>
<wgt id='1519'> +7.5375483e+01 </wgt>
<wgt id='1520'> +7.5519188e+01 </wgt>
<wgt id='1521'> +7.5460741e+01 </wgt>
<wgt id='1522'> +7.5515509e+01 </wgt>
<wgt id='1523'> +7.5497854e+01 </wgt>
<wgt id='1524'> +7.5519972e+01 </wgt>
<wgt id='1525'> +7.5444627e+01 </wgt>
<wgt id='1526'> +7.5479592e+01 </wgt>
<wgt id='1527'> +7.5501973e+01 </wgt>
<wgt id='1528'> +7.5453555e+01 </wgt>
<wgt id='1529'> +7.5524898e+01 </wgt>
<wgt id='1530'> +7.5437241e+01 </wgt>
<wgt id='1531'> +7.5529851e+01 </wgt>
<wgt id='1532'> +7.5507011e+01 </wgt>
<wgt id='1533'> +7.5489609e+01 </wgt>
<wgt id='1534'> +7.5543266e+01 </wgt>
<wgt id='1535'> +7.5533104e+01 </wgt>
<wgt id='1536'> +7.5547501e+01 </wgt>
<wgt id='1537'> +7.5518460e+01 </wgt>
<wgt id='1538'> +7.5477671e+01 </wgt>
<wgt id='1539'> +7.5490508e+01 </wgt>
<wgt id='1540'> +7.5510277e+01 </wgt>
<wgt id='1541'> +7.5522554e+01 </wgt>
<wgt id='1542'> +7.5520175e+01 </wgt>
<wgt id='1543'> +7.5489939e+01 </wgt>
<wgt id='1544'> +7.5524691e+01 </wgt>
<wgt id='1545'> +7.5542674e+01 </wgt>
<wgt id='1546'> +7.5516388e+01 </wgt>
<wgt id='1547'> +7.5532623e+01 </wgt>
<wgt id='1548'> +7.5504144e+01 </wgt>
<wgt id='1549'> +7.5545556e+01 </wgt>
<wgt id='1550'> +7.5535062e+01 </wgt>
<wgt id='1551'> +7.5556790e+01 </wgt>
<wgt id='1552'> +7.5556101e+01 </wgt>
<wgt id='1553'> +7.5555735e+01 </wgt>
<wgt id='1554'> +7.5517102e+01 </wgt>
<wgt id='1555'> +7.5514277e+01 </wgt>
<wgt id='1556'> +7.5523233e+01 </wgt>
<wgt id='1557'> +7.5484188e+01 </wgt>
<wgt id='1558'> +7.5502205e+01 </wgt>
<wgt id='1559'> +7.5479821e+01 </wgt>
<wgt id='1560'> +7.5509176e+01 </wgt>
<wgt id='1561'> +7.5539598e+01 </wgt>
<wgt id='1562'> +7.5497525e+01 </wgt>
<wgt id='1563'> +7.5533816e+01 </wgt>
<wgt id='1564'> +7.5519880e+01 </wgt>
<wgt id='1565'> +7.5538741e+01 </wgt>
<wgt id='1566'> +7.5535115e+01 </wgt>
<wgt id='1567'> +7.5204175e+01 </wgt>
<wgt id='1568'> +7.5687534e+01 </wgt>
<wgt id='1569'> +7.5679197e+01 </wgt>
<wgt id='1570'> +7.5718345e+01 </wgt>
<wgt id='1571'> +7.5773106e+01 </wgt>
<wgt id='1572'> +7.5370607e+01 </wgt>
<wgt id='1573'> +7.5670283e+01 </wgt>
<wgt id='1574'> +7.5907214e+01 </wgt>
<wgt id='1575'> +7.5608078e+01 </wgt>
<wgt id='1576'> +7.5633054e+01 </wgt>
<wgt id='1577'> +7.5753431e+01 </wgt>
<wgt id='1578'> +7.5752742e+01 </wgt>
<wgt id='1579'> +7.5637336e+01 </wgt>
<wgt id='1580'> +7.6137723e+01 </wgt>
<wgt id='1581'> +7.5389253e+01 </wgt>
<wgt id='1582'> +7.5334070e+01 </wgt>
<wgt id='1583'> +7.5225898e+01 </wgt>
<wgt id='1584'> +7.5487810e+01 </wgt>
<wgt id='1585'> +7.5871897e+01 </wgt>
<wgt id='1586'> +7.5723504e+01 </wgt>
<wgt id='1587'> +7.5701097e+01 </wgt>
<wgt id='1588'> +7.5401626e+01 </wgt>
<wgt id='1589'> +7.5882083e+01 </wgt>
<wgt id='1590'> +7.5839946e+01 </wgt>
<wgt id='1591'> +7.5460585e+01 </wgt>
<wgt id='1592'> +7.5972918e+01 </wgt>
<wgt id='1593'> +7.5991095e+01 </wgt>
<wgt id='1594'> +7.5595222e+01 </wgt>
<wgt id='1595'> +7.5620462e+01 </wgt>
<wgt id='1596'> +7.5791829e+01 </wgt>
<wgt id='1597'> +7.5597001e+01 </wgt>
<wgt id='1598'> +7.5516159e+01 </wgt>
<wgt id='1599'> +7.5677161e+01 </wgt>
<wgt id='1600'> +7.5892098e+01 </wgt>
<wgt id='1601'> +7.5833843e+01 </wgt>
<wgt id='1602'> +7.5913045e+01 </wgt>
<wgt id='1603'> +7.5854263e+01 </wgt>
<wgt id='1604'> +7.5451015e+01 </wgt>
<wgt id='1605'> +7.5786924e+01 </wgt>
<wgt id='1606'> +7.5674149e+01 </wgt>
<wgt id='1607'> +7.5785272e+01 </wgt>
<wgt id='1608'> +7.5545769e+01 </wgt>
<wgt id='1609'> +7.5603249e+01 </wgt>
<wgt id='1610'> +7.5673017e+01 </wgt>
<wgt id='1611'> +7.5725303e+01 </wgt>
<wgt id='1612'> +7.5498816e+01 </wgt>
<wgt id='1613'> +7.5755800e+01 </wgt>
<wgt id='1614'> +7.5663515e+01 </wgt>
<wgt id='1615'> +7.5679409e+01 </wgt>
<wgt id='1616'> +7.5547665e+01 </wgt>
<wgt id='1617'> +7.5801846e+01 </wgt>
<wgt id='1618'> +7.5565407e+01 </wgt>
<wgt id='1619'> +7.5784185e+01 </wgt>
<wgt id='1620'> +7.5764047e+01 </wgt>
<wgt id='1621'> +7.5718889e+01 </wgt>
<wgt id='1622'> +7.5607978e+01 </wgt>
<wgt id='1623'> +7.5609679e+01 </wgt>
<wgt id='1624'> +7.5666896e+01 </wgt>
<wgt id='1625'> +7.5682877e+01 </wgt>
<wgt id='1626'> +7.5641626e+01 </wgt>
<wgt id='1627'> +7.5532680e+01 </wgt>
<wgt id='1628'> +7.5686774e+01 </wgt>
<wgt id='1629'> +7.5674095e+01 </wgt>
<wgt id='1630'> +7.5653568e+01 </wgt>
<wgt id='1631'> +7.5709863e+01 </wgt>
<wgt id='1632'> +7.5648226e+01 </wgt>
<wgt id='1633'> +7.5644590e+01 </wgt>
<wgt id='1634'> +7.5679026e+01 </wgt>
<wgt id='1635'> +7.5704923e+01 </wgt>
<wgt id='1636'> +7.5702611e+01 </wgt>
<wgt id='1637'> +7.5681603e+01 </wgt>
<wgt id='1638'> +7.5710648e+01 </wgt>
<wgt id='1639'> +7.5667607e+01 </wgt>
<wgt id='1640'> +7.5710092e+01 </wgt>
<wgt id='1641'> +7.5741725e+01 </wgt>
<wgt id='1642'> +7.5631982e+01 </wgt>
<wgt id='1643'> +7.5663913e+01 </wgt>
<wgt id='1644'> +7.5669699e+01 </wgt>
<wgt id='1645'> +7.5699462e+01 </wgt>
<wgt id='1646'> +7.5725467e+01 </wgt>
<wgt id='1647'> +7.5668681e+01 </wgt>
<wgt id='1648'> +7.5694397e+01 </wgt>
<wgt id='1649'> +7.5729882e+01 </wgt>
<wgt id='1650'> +7.5704820e+01 </wgt>
<wgt id='1651'> +7.5686898e+01 </wgt>
<wgt id='1652'> +7.5664569e+01 </wgt>
<wgt id='1653'> +7.5652866e+01 </wgt>
<wgt id='1654'> +7.5649903e+01 </wgt>
<wgt id='1655'> +7.5693261e+01 </wgt>
<wgt id='1656'> +7.5639089e+01 </wgt>
<wgt id='1657'> +7.5643491e+01 </wgt>
<wgt id='1658'> +7.5664121e+01 </wgt>
<wgt id='1659'> +7.5669263e+01 </wgt>
<wgt id='1660'> +7.5688761e+01 </wgt>
<wgt id='1661'> +7.5688517e+01 </wgt>
<wgt id='1662'> +7.5674313e+01 </wgt>
<wgt id='1663'> +7.5636978e+01 </wgt>
<wgt id='1664'> +7.5700289e+01 </wgt>
<wgt id='1665'> +7.5678352e+01 </wgt>
<wgt id='1666'> +7.5679262e+01 </wgt>
<wgt id='1667'> +7.5678671e+01 </wgt>
<wgt id='1668'> +7.5660713e+01 </wgt>
<wgt id='1669'> +7.5684400e+01 </wgt>
<wgt id='1670'> +7.5395441e+01 </wgt>
<wgt id='1671'> +7.5675155e+01 </wgt>
<wgt id='1672'> +7.5520335e+01 </wgt>
<wgt id='1673'> +7.5179366e+01 </wgt>
<wgt id='1674'> +7.5081193e+01 </wgt>
<wgt id='1675'> +7.5503108e+01 </wgt>
<wgt id='1676'> +7.5768620e+01 </wgt>
<wgt id='1677'> +7.6226083e+01 </wgt>
<wgt id='1678'> +7.5508918e+01 </wgt>
<wgt id='1679'> +7.5471362e+01 </wgt>
<wgt id='1680'> +7.5728824e+01 </wgt>
<wgt id='1681'> +7.5346833e+01 </wgt>
<wgt id='1682'> +7.5662822e+01 </wgt>
<wgt id='1683'> +7.5477326e+01 </wgt>
<wgt id='1684'> +7.6095152e+01 </wgt>
<wgt id='1685'> +7.5564499e+01 </wgt>
<wgt id='1686'> +7.5481953e+01 </wgt>
<wgt id='1687'> +7.5644644e+01 </wgt>
<wgt id='1688'> +7.5459594e+01 </wgt>
<wgt id='1689'> +7.5458448e+01 </wgt>
<wgt id='1690'> +7.5504581e+01 </wgt>
<wgt id='1691'> +7.5656381e+01 </wgt>
<wgt id='1692'> +7.5751076e+01 </wgt>
<wgt id='1693'> +7.5333328e+01 </wgt>
<wgt id='1694'> +7.5372413e+01 </wgt>
<wgt id='1695'> +7.5563476e+01 </wgt>
<wgt id='1696'> +7.5271719e+01 </wgt>
<wgt id='1697'> +7.5574694e+01 </wgt>
<wgt id='1698'> +7.5349519e+01 </wgt>
<wgt id='1699'> +7.5567268e+01 </wgt>
<wgt id='1700'> +7.5530101e+01 </wgt>
<wgt id='1701'> +7.5526286e+01 </wgt>
<wgt id='1702'> +7.5602665e+01 </wgt>
<wgt id='1703'> +7.5204175e+01 </wgt>
<wgt id='1704'> +7.5687534e+01 </wgt>
<wgt id='1705'> +7.5675730e+01 </wgt>
<wgt id='1706'> +7.5744738e+01 </wgt>
<wgt id='1707'> +7.5699875e+01 </wgt>
<wgt id='1708'> +7.5608588e+01 </wgt>
<wgt id='1709'> +7.5575209e+01 </wgt>
<wgt id='1710'> +7.4873144e+01 </wgt>
<wgt id='1711'> +7.5688925e+01 </wgt>
<wgt id='1712'> +7.5580912e+01 </wgt>
<wgt id='1713'> +7.5515859e+01 </wgt>
<wgt id='1714'> +7.5312767e+01 </wgt>
<wgt id='1715'> +7.5476111e+01 </wgt>
<wgt id='1716'> +7.5627161e+01 </wgt>
<wgt id='1717'> +7.5728308e+01 </wgt>
<wgt id='1718'> +7.5783387e+01 </wgt>
<wgt id='1719'> +7.5585621e+01 </wgt>
<wgt id='1720'> +7.5441544e+01 </wgt>
<wgt id='1721'> +7.5551173e+01 </wgt>
<wgt id='1722'> +7.5482940e+01 </wgt>
<wgt id='1723'> +7.5675904e+01 </wgt>
<wgt id='1724'> +7.5761355e+01 </wgt>
<wgt id='1725'> +7.5556229e+01 </wgt>
<wgt id='1726'> +7.5660690e+01 </wgt>
<wgt id='1727'> +7.6279843e+01 </wgt>
<wgt id='1728'> +7.5640628e+01 </wgt>
<wgt id='1729'> +7.5766313e+01 </wgt>
<wgt id='1730'> +7.5652668e+01 </wgt>
<wgt id='1731'> +7.5770114e+01 </wgt>
<wgt id='1732'> +7.5749464e+01 </wgt>
<wgt id='1733'> +7.5816557e+01 </wgt>
<wgt id='1734'> +7.5727555e+01 </wgt>
<wgt id='1735'> +7.5849127e+01 </wgt>
<wgt id='1736'> +7.5395441e+01 </wgt>
<wgt id='1737'> +7.5675155e+01 </wgt>
<wgt id='1738'> +8.1171644e+01 </wgt>
<wgt id='1739'> +8.1134071e+01 </wgt>
<wgt id='1740'> +8.1209042e+01 </wgt>
<wgt id='1741'> +8.1150743e+01 </wgt>
<wgt id='1742'> +8.1192340e+01 </wgt>
<wgt id='1743'> +8.1064418e+01 </wgt>
<wgt id='1744'> +8.1278292e+01 </wgt>
<wgt id='1745'> +8.1328372e+01 </wgt>
<wgt id='1746'> +8.1017035e+01 </wgt>
<wgt id='1747'> +8.1595642e+01 </wgt>
<wgt id='1748'> +8.0747683e+01 </wgt>
<wgt id='1749'> +8.1134856e+01 </wgt>
<wgt id='1750'> +8.1222361e+01 </wgt>
<wgt id='1751'> +8.0858734e+01 </wgt>
<wgt id='1752'> +8.1484474e+01 </wgt>
<wgt id='1753'> +8.0994037e+01 </wgt>
<wgt id='1754'> +8.1278217e+01 </wgt>
<wgt id='1755'> +8.1094893e+01 </wgt>
<wgt id='1756'> +8.1258234e+01 </wgt>
<wgt id='1757'> +8.0955942e+01 </wgt>
<wgt id='1758'> +8.1373780e+01 </wgt>
<wgt id='1759'> +8.1371197e+01 </wgt>
<wgt id='1760'> +8.0977136e+01 </wgt>
<wgt id='1761'> +8.0552624e+01 </wgt>
<wgt id='1762'> +8.1621849e+01 </wgt>
<wgt id='1763'> +8.1435785e+01 </wgt>
<wgt id='1764'> +8.0860422e+01 </wgt>
<wgt id='1765'> +8.0921362e+01 </wgt>
<wgt id='1766'> +8.1304270e+01 </wgt>
<wgt id='1767'> +8.1171644e+01 </wgt>
<wgt id='1768'> +8.0512046e+01 </wgt>
<wgt id='1769'> +8.0880540e+01 </wgt>
<wgt id='1770'> +8.0464836e+01 </wgt>
<wgt id='1771'> +8.0833821e+01 </wgt>
<wgt id='1772'> +8.1131264e+01 </wgt>
<wgt id='1773'> +8.0300717e+01 </wgt>
<wgt id='1774'> +8.0585980e+01 </wgt>
<wgt id='1775'> +8.0833948e+01 </wgt>
<wgt id='1776'> +8.0618268e+01 </wgt>
<wgt id='1777'> +8.0813714e+01 </wgt>
<wgt id='1778'> +8.0603670e+01 </wgt>
<wgt id='1779'> +8.0837444e+01 </wgt>
<wgt id='1780'> +8.1940464e+01 </wgt>
<wgt id='1781'> +8.0109394e+01 </wgt>
<wgt id='1782'> +7.9593368e+01 </wgt>
<wgt id='1783'> +7.9655438e+01 </wgt>
<wgt id='1784'> +7.9622061e+01 </wgt>
<wgt id='1785'> +7.9626905e+01 </wgt>
<wgt id='1786'> +7.9503900e+01 </wgt>
<wgt id='1787'> +7.9744147e+01 </wgt>
<wgt id='1788'> +7.9663644e+01 </wgt>
<wgt id='1789'> +7.9588316e+01 </wgt>
<wgt id='1790'> +7.9859718e+01 </wgt>
<wgt id='1791'> +7.9391709e+01 </wgt>
<wgt id='1792'> +7.9943327e+01 </wgt>
<wgt id='1793'> +7.9305988e+01 </wgt>
<wgt id='1794'> +7.9340836e+01 </wgt>
<wgt id='1795'> +7.9905197e+01 </wgt>
<wgt id='1796'> +7.9455081e+01 </wgt>
<wgt id='1797'> +7.9728947e+01 </wgt>
<wgt id='1798'> +7.9825037e+01 </wgt>
<wgt id='1799'> +7.9419807e+01 </wgt>
<wgt id='1800'> +7.9524935e+01 </wgt>
<wgt id='1801'> +7.9726319e+01 </wgt>
<wgt id='1802'> +7.9167347e+01 </wgt>
<wgt id='1803'> +8.0079754e+01 </wgt>
<wgt id='1804'> +7.9765698e+01 </wgt>
<wgt id='1805'> +7.9432980e+01 </wgt>
<wgt id='1806'> +7.9339222e+01 </wgt>
<wgt id='1807'> +7.9737984e+01 </wgt>
<wgt id='1808'> +7.9282599e+01 </wgt>
<wgt id='1809'> +7.9782062e+01 </wgt>
<wgt id='1810'> +8.0094647e+01 </wgt>
<wgt id='1811'> +7.9579653e+01 </wgt>
<wgt id='1812'> +7.9436004e+01 </wgt>
<wgt id='1813'> +7.9551130e+01 </wgt>
<wgt id='1814'> +7.9586941e+01 </wgt>
<wgt id='1815'> +7.9862945e+01 </wgt>
<wgt id='1816'> +7.8777194e+01 </wgt>
<wgt id='1817'> +7.9492258e+01 </wgt>
<wgt id='1818'> +7.9889268e+01 </wgt>
<wgt id='1819'> +7.8905175e+01 </wgt>
<wgt id='1820'> +7.9758618e+01 </wgt>
<wgt id='1821'> +7.8741788e+01 </wgt>
<wgt id='1822'> +8.0414572e+01 </wgt>
<wgt id='1823'> +7.9213515e+01 </wgt>
<wgt id='1824'> +7.5268823e+01 </wgt>
<wgt id='1825'> +7.5260733e+01 </wgt>
<wgt id='1826'> +7.5252564e+01 </wgt>
<wgt id='1827'> +7.5244539e+01 </wgt>
<wgt id='1828'> +7.5236400e+01 </wgt>
<wgt id='1829'> +7.5228304e+01 </wgt>
<wgt id='1830'> +7.5220113e+01 </wgt>
<wgt id='1831'> +7.5212067e+01 </wgt>
<wgt id='1832'> +7.5203899e+01 </wgt>
<wgt id='1833'> +7.5195822e+01 </wgt>
<wgt id='1834'> +7.5187684e+01 </wgt>
<wgt id='1835'> +7.5179624e+01 </wgt>
<wgt id='1836'> +7.5171454e+01 </wgt>
<wgt id='1837'> +7.5163299e+01 </wgt>
<wgt id='1838'> +7.5155192e+01 </wgt>
<wgt id='1839'> +7.5147045e+01 </wgt>
<wgt id='1840'> +7.5139022e+01 </wgt>
<wgt id='1841'> +7.5130860e+01 </wgt>
<wgt id='1842'> +7.5122800e+01 </wgt>
<wgt id='1843'> +7.5114599e+01 </wgt>
<wgt id='1844'> +7.5106516e+01 </wgt>
<wgt id='1845'> +7.5098390e+01 </wgt>
<wgt id='1846'> +7.5090381e+01 </wgt>
<wgt id='1847'> +7.5082135e+01 </wgt>
<wgt id='1848'> +7.5074092e+01 </wgt>
<wgt id='1849'> +7.5065947e+01 </wgt>
<wgt id='1850'> +7.5057863e+01 </wgt>
<wgt id='1851'> +7.5049768e+01 </wgt>
<wgt id='1852'> +7.5041588e+01 </wgt>
<wgt id='1853'> +7.5033483e+01 </wgt>
<wgt id='1854'> +7.5025345e+01 </wgt>
<wgt id='1855'> +7.4934304e+01 </wgt>
<wgt id='1856'> +7.4973571e+01 </wgt>
<wgt id='1857'> +7.5026965e+01 </wgt>
<wgt id='1858'> +7.4629415e+01 </wgt>
<wgt id='1859'> +7.4926193e+01 </wgt>
<wgt id='1860'> +7.5160942e+01 </wgt>
<wgt id='1861'> +7.4863867e+01 </wgt>
<wgt id='1862'> +7.4887690e+01 </wgt>
<wgt id='1863'> +7.5007357e+01 </wgt>
<wgt id='1864'> +7.5007383e+01 </wgt>
<wgt id='1865'> +7.4893091e+01 </wgt>
<wgt id='1866'> +7.5388518e+01 </wgt>
<wgt id='1867'> +7.4647179e+01 </wgt>
<wgt id='1868'> +7.4593020e+01 </wgt>
<wgt id='1869'> +7.4484882e+01 </wgt>
<wgt id='1870'> +7.4744276e+01 </wgt>
<wgt id='1871'> +7.5124871e+01 </wgt>
<wgt id='1872'> +7.4978405e+01 </wgt>
<wgt id='1873'> +7.4956768e+01 </wgt>
<wgt id='1874'> +7.4660536e+01 </wgt>
<wgt id='1875'> +7.5135242e+01 </wgt>
<wgt id='1876'> +7.5091298e+01 </wgt>
<wgt id='1877'> +7.4718894e+01 </wgt>
<wgt id='1878'> +7.5222725e+01 </wgt>
<wgt id='1879'> +7.5241908e+01 </wgt>
<wgt id='1880'> +7.4852946e+01 </wgt>
<wgt id='1881'> +7.4876482e+01 </wgt>
<wgt id='1882'> +7.5045135e+01 </wgt>
<wgt id='1883'> +7.4853243e+01 </wgt>
<wgt id='1884'> +7.4772768e+01 </wgt>
<wgt id='1885'> +7.4932572e+01 </wgt>
<wgt id='1886'> +7.5144352e+01 </wgt>
<wgt id='1887'> +7.5087167e+01 </wgt>
<wgt id='1888'> +7.5165954e+01 </wgt>
<wgt id='1889'> +7.5107909e+01 </wgt>
<wgt id='1890'> +7.4708823e+01 </wgt>
<wgt id='1891'> +7.5040724e+01 </wgt>
<wgt id='1892'> +7.4929919e+01 </wgt>
<wgt id='1893'> +7.5039841e+01 </wgt>
<wgt id='1894'> +7.4802184e+01 </wgt>
<wgt id='1895'> +7.4858458e+01 </wgt>
<wgt id='1896'> +7.4928094e+01 </wgt>
<wgt id='1897'> +7.4979468e+01 </wgt>
<wgt id='1898'> +7.4755382e+01 </wgt>
<wgt id='1899'> +7.5010116e+01 </wgt>
<wgt id='1900'> +7.4919363e+01 </wgt>
<wgt id='1901'> +7.4933718e+01 </wgt>
<wgt id='1902'> +7.4803873e+01 </wgt>
<wgt id='1903'> +7.5055190e+01 </wgt>
<wgt id='1904'> +7.4821738e+01 </wgt>
<wgt id='1905'> +7.5038318e+01 </wgt>
<wgt id='1906'> +7.5019091e+01 </wgt>
<wgt id='1907'> +7.4974507e+01 </wgt>
<wgt id='1908'> +7.4864225e+01 </wgt>
<wgt id='1909'> +7.4865565e+01 </wgt>
<wgt id='1910'> +7.4922140e+01 </wgt>
<wgt id='1911'> +7.4938441e+01 </wgt>
<wgt id='1912'> +7.4897105e+01 </wgt>
<wgt id='1913'> +7.4789424e+01 </wgt>
<wgt id='1914'> +7.4941228e+01 </wgt>
<wgt id='1915'> +7.4929135e+01 </wgt>
<wgt id='1916'> +7.4908736e+01 </wgt>
<wgt id='1917'> +7.4964663e+01 </wgt>
<wgt id='1918'> +7.4904151e+01 </wgt>
<wgt id='1919'> +7.4900617e+01 </wgt>
<wgt id='1920'> +7.4933984e+01 </wgt>
<wgt id='1921'> +7.4959518e+01 </wgt>
<wgt id='1922'> +7.4957530e+01 </wgt>
<wgt id='1923'> +7.4936590e+01 </wgt>
<wgt id='1924'> +7.4965686e+01 </wgt>
<wgt id='1925'> +7.4922721e+01 </wgt>
<wgt id='1926'> +7.4964930e+01 </wgt>
<wgt id='1927'> +7.4996531e+01 </wgt>
<wgt id='1928'> +7.4887386e+01 </wgt>
<wgt id='1929'> +7.4919626e+01 </wgt>
<wgt id='1930'> +7.4924807e+01 </wgt>
<wgt id='1931'> +7.4954288e+01 </wgt>
<wgt id='1932'> +7.4979926e+01 </wgt>
<wgt id='1933'> +7.4924386e+01 </wgt>
<wgt id='1934'> +7.4948872e+01 </wgt>
<wgt id='1935'> +7.4984548e+01 </wgt>
<wgt id='1936'> +7.4959629e+01 </wgt>
<wgt id='1937'> +7.4942004e+01 </wgt>
<wgt id='1938'> +7.4919489e+01 </wgt>
<wgt id='1939'> +7.4908300e+01 </wgt>
<wgt id='1940'> +7.4905492e+01 </wgt>
<wgt id='1941'> +7.4948268e+01 </wgt>
<wgt id='1942'> +7.4894634e+01 </wgt>
<wgt id='1943'> +7.4898880e+01 </wgt>
<wgt id='1944'> +7.4919627e+01 </wgt>
<wgt id='1945'> +7.4924425e+01 </wgt>
<wgt id='1946'> +7.4943606e+01 </wgt>
<wgt id='1947'> +7.4943571e+01 </wgt>
<wgt id='1948'> +7.4929179e+01 </wgt>
<wgt id='1949'> +7.4892967e+01 </wgt>
<wgt id='1950'> +7.4955189e+01 </wgt>
<wgt id='1951'> +7.4933280e+01 </wgt>
<wgt id='1952'> +7.4934356e+01 </wgt>
<wgt id='1953'> +7.4933855e+01 </wgt>
<wgt id='1954'> +7.4916052e+01 </wgt>
<wgt id='1955'> +7.4939391e+01 </wgt>
<wgt id='1956'> +7.4933882e+01 </wgt>
<wgt id='1957'> +7.4936649e+01 </wgt>
<wgt id='1958'> +7.4934758e+01 </wgt>
<wgt id='1959'> +7.4934829e+01 </wgt>
<wgt id='1960'> +7.4935626e+01 </wgt>
<wgt id='1961'> +7.4934497e+01 </wgt>
<wgt id='1962'> +7.4937165e+01 </wgt>
</rwgt>
</event>
<event npLO=" -1 " npNLO=" 0 ">
 6      0 +1.5146096e+02 4.48051480e+01 7.54677110e-03 1.17620870e-01
        1 -1    0    0  501    0 +0.0000000000e+00 +0.0000000000e+00 +4.1384772000e+00 4.1384772000e+00 0.0000000000e+00 0.0000e+00 9.0000e+00
       -1 -1    0    0    0  501 +0.0000000000e+00 +0.0000000000e+00 -4.9842868000e+02 4.9842868000e+02 0.0000000000e+00 0.0000e+00 9.0000e+00
       23  2    1    2    0    0 +0.0000000000e+00 +2.2204460000e-16 -4.9429020000e+02 5.0256715000e+02 9.0834701000e+01 0.0000e+00 0.0000e+00
       15  1    3    3    0    0 -2.6663047000e+01 -7.9672558000e-01 -1.1960686000e+02 1.2255820000e+02 1.7770000000e+00 0.0000e+00 9.0000e+00
      -15  1    3    3    0    0 +4.4720365000e+01 +1.7917973000e+00 -2.8765899000e+02 2.9112535000e+02 1.7770000000e+00 0.0000e+00 9.0000e+00
       22  1    3    3    0    0 -1.8057318000e+01 -9.9507167000e-01 -8.7024348000e+01 8.8883599000e+01 0.0000000000e+00 0.0000e+00 9.0000e+00
#aMCatNLO 1  0  0  2  1 0.71913461E+02 0.00000000E+00 -9  6  0 0.00000000E+00 0.00000000E+00 0.00000000E+00 0.00000000E+00 0.00000000E+00
<rwgt>
<wgt id='1001'> +1.5146000e+02 </wgt>
<wgt id='1002'> +1.5146000e+02 </wgt>
<wgt id='1003'> +1.3893000e+02 </wgt>
<wgt id='1004'> +1.4864000e+02 </wgt>
<wgt id='1005'> +1.5902000e+02 </wgt>
<wgt id='1006'> +1.5244000e+02 </wgt>
<wgt id='1007'> +1.4511000e+02 </wgt>
<wgt id='1008'> +1.4167000e+02 </wgt>
<wgt id='1009'> +1.4918000e+02 </wgt>
<wgt id='1010'> +1.4979000e+02 </wgt>
<wgt id='1011'> +1.5749000e+02 </wgt>
<wgt id='1012'> +1.5600000e+02 </wgt>
<wgt id='1013'> +1.3781000e+02 </wgt>
<wgt id='1014'> +1.4782000e+02 </wgt>
<wgt id='1015'> +1.5805000e+02 </wgt>
<wgt id='1016'> +1.5335000e+02 </wgt>
<wgt id='1017'> +1.5015000e+02 </wgt>
<wgt id='1018'> +1.5908000e+02 </wgt>
<wgt id='1019'> +1.4944000e+02 </wgt>
<wgt id='1020'> +1.4632000e+02 </wgt>
<wgt id='1021'> +1.5180000e+02 </wgt>
<wgt id='1022'> +1.5686000e+02 </wgt>
<wgt id='1023'> +1.5907000e+02 </wgt>
<wgt id='1024'> +1.5140000e+02 </wgt>
<wgt id='1025'> +1.6324000e+02 </wgt>
<wgt id='1026'> +1.6141000e+02 </wgt>
<wgt id='1027'> +1.5111000e+02 </wgt>
<wgt id='1028'> +1.5019000e+02 </wgt>
<wgt id='1029'> +1.5282000e+02 </wgt>
<wgt id='1030'> +1.5332000e+02 </wgt>
<wgt id='1031'> +1.4913000e+02 </wgt>
<wgt id='1032'> +1.5504000e+02 </wgt>
<wgt id='1033'> +1.6464000e+02 </wgt>
<wgt id='1034'> +1.4950000e+02 </wgt>
<wgt id='1035'> +1.5666000e+02 </wgt>
<wgt id='1036'> +1.5414000e+02 </wgt>
<wgt id='1037'> +1.5956000e+02 </wgt>
<wgt id='1038'> +1.4966000e+02 </wgt>
<wgt id='1039'> +1.5543000e+02 </wgt>
<wgt id='1040'> +1.4610000e+02 </wgt>
<wgt id='1041'> +1.4750000e+02 </wgt>
<wgt id='1042'> +1.5173000e+02 </wgt>
<wgt id='1043'> +1.4472000e+02 </wgt>
<wgt id='1044'> +1.4918000e+02 </wgt>
<wgt id='1045'> +1.5163000e+02 </wgt>
<wgt id='1046'> +1.5341000e+02 </wgt>
<wgt id='1047'> +1.4986000e+02 </wgt>
<wgt id='1048'> +1.4562000e+02 </wgt>
<wgt id='1049'> +1.4714000e+02 </wgt>
<wgt id='1050'> +1.4972000e+02 </wgt>
<wgt id='1051'> +1.4954000e+02 </wgt>
<wgt id='1052'> +1.5121000e+02 </wgt>
<wgt id='1053'> +1.4882000e+02 </wgt>
<wgt id='1054'> +1.5030000e+02 </wgt>
<wgt id='1055'> +1.5300000e+02 </wgt>
<wgt id='1056'> +1.5112000e+02 </wgt>
<wgt id='1057'> +1.5601000e+02 </wgt>
<wgt id='1058'> +1.4601000e+02 </wgt>
<wgt id='1059'> +1.4871000e+02 </wgt>
<wgt id='1060'> +1.4633000e+02 </wgt>
<wgt id='1061'> +1.5856000e+02 </wgt>
<wgt id='1062'> +1.4875000e+02 </wgt>
<wgt id='1063'> +1.5097000e+02 </wgt>
<wgt id='1064'> +1.5115000e+02 </wgt>
<wgt id='1065'> +1.5107000e+02 </wgt>
<wgt id='1066'> +1.4158000e+02 </wgt>
<wgt id='1067'> +1.5461000e+02 </wgt>
<wgt id='1068'> +1.5749000e+02 </wgt>
<wgt id='1069'> +1.5486000e+02 </wgt>
<wgt id='1070'> +1.5271000e+02 </wgt>
<wgt id='1071'> +1.5357000e+02 </wgt>
<wgt id='1072'> +1.5977000e+02 </wgt>
<wgt id='1073'> +1.5085000e+02 </wgt>
<wgt id='1074'> +1.4783000e+02 </wgt>
<wgt id='1075'> +1.3989000e+02 </wgt>
<wgt id='1076'> +1.5722000e+02 </wgt>
<wgt id='1077'> +1.4700000e+02 </wgt>
<wgt id='1078'> +1.4617000e+02 </wgt>
<wgt id='1079'> +1.5229000e+02 </wgt>
<wgt id='1080'> +1.5211000e+02 </wgt>
<wgt id='1081'> +1.4746000e+02 </wgt>
<wgt id='1082'> +1.5586000e+02 </wgt>
<wgt id='1083'> +1.5267000e+02 </wgt>
<wgt id='1084'> +1.4699000e+02 </wgt>
<wgt id='1085'> +1.4671000e+02 </wgt>
<wgt id='1086'> +1.5718000e+02 </wgt>
<wgt id='1087'> +1.5553000e+02 </wgt>
<wgt id='1088'> +1.5173000e+02 </wgt>
<wgt id='1089'> +1.4751000e+02 </wgt>
<wgt id='1090'> +1.4791000e+02 </wgt>
<wgt id='1091'> +1.4998000e+02 </wgt>
<wgt id='1092'> +1.5809000e+02 </wgt>
<wgt id='1093'> +1.5331000e+02 </wgt>
<wgt id='1094'> +1.5333000e+02 </wgt>
<wgt id='1095'> +1.5143000e+02 </wgt>
<wgt id='1096'> +1.5205000e+02 </wgt>
<wgt id='1097'> +1.4687000e+02 </wgt>
<wgt id='1098'> +1.4830000e+02 </wgt>
<wgt id='1099'> +1.6126000e+02 </wgt>
<wgt id='1100'> +1.5435000e+02 </wgt>
<wgt id='1101'> +1.5038000e+02 </wgt>
<wgt id='1102'> +1.4505000e+02 </wgt>
<wgt id='1103'> +1.5029000e+02 </wgt>
<wgt id='1104'> +1.5151000e+02 </wgt>
<wgt id='1105'> +1.5146096e+02 </wgt>
<wgt id='1106'> +7.5655384e+01 </wgt>
<wgt id='1107'> +7.5823504e+01 </wgt>
<wgt id='1108'> +8.2147500e+01 </wgt>
<wgt id='1109'> +8.2126569e+01 </wgt>
<wgt id='1110'> +8.2173429e+01 </wgt>
<wgt id='1111'> +6.8331373e+01 </wgt>
<wgt id='1112'> +6.8214048e+01 </wgt>
<wgt id='1113'> +6.8476708e+01 </wgt>
<wgt id='1114'> +8.0734351e+01 </wgt>
<wgt id='1115'> +8.7914997e+01 </wgt>
<wgt id='1116'> +8.1226302e+01 </wgt>
<wgt id='1117'> +8.5507586e+01 </wgt>
<wgt id='1118'> +8.5341363e+01 </wgt>
<wgt id='1119'> +7.9807182e+01 </wgt>
<wgt id='1120'> +8.0643337e+01 </wgt>
<wgt id='1121'> +7.9136094e+01 </wgt>
<wgt id='1122'> +7.7222744e+01 </wgt>
<wgt id='1123'> +7.6490807e+01 </wgt>
<wgt id='1124'> +8.0956450e+01 </wgt>
<wgt id='1125'> +7.9493179e+01 </wgt>
<wgt id='1126'> +7.8536894e+01 </wgt>
<wgt id='1127'> +8.3278341e+01 </wgt>
<wgt id='1128'> +8.0714392e+01 </wgt>
<wgt id='1129'> +7.8186473e+01 </wgt>
<wgt id='1130'> +8.0129119e+01 </wgt>
<wgt id='1131'> +8.4451628e+01 </wgt>
<wgt id='1132'> +7.9609113e+01 </wgt>
<wgt id='1133'> +8.3767729e+01 </wgt>
<wgt id='1134'> +7.8196125e+01 </wgt>
<wgt id='1135'> +8.1238648e+01 </wgt>
<wgt id='1136'> +8.5809745e+01 </wgt>
<wgt id='1137'> +7.9852633e+01 </wgt>
<wgt id='1138'> +8.0908917e+01 </wgt>
<wgt id='1139'> +7.6429534e+01 </wgt>
<wgt id='1140'> +8.1271516e+01 </wgt>
<wgt id='1141'> +9.2440347e+01 </wgt>
<wgt id='1142'> +8.1796635e+01 </wgt>
<wgt id='1143'> +7.8925471e+01 </wgt>
<wgt id='1144'> +8.1601835e+01 </wgt>
<wgt id='1145'> +8.1697227e+01 </wgt>
<wgt id='1146'> +7.9848733e+01 </wgt>
<wgt id='1147'> +8.7246126e+01 </wgt>
<wgt id='1148'> +7.9948786e+01 </wgt>
<wgt id='1149'> +8.2319988e+01 </wgt>
<wgt id='1150'> +8.0537182e+01 </wgt>
<wgt id='1151'> +7.9844708e+01 </wgt>
<wgt id='1152'> +7.9852834e+01 </wgt>
<wgt id='1153'> +7.9103495e+01 </wgt>
<wgt id='1154'> +8.0943974e+01 </wgt>
<wgt id='1155'> +8.4493902e+01 </wgt>
<wgt id='1156'> +8.2287464e+01 </wgt>
<wgt id='1157'> +8.9293985e+01 </wgt>
<wgt id='1158'> +8.0728190e+01 </wgt>
<wgt id='1159'> +7.8133138e+01 </wgt>
<wgt id='1160'> +8.0692771e+01 </wgt>
<wgt id='1161'> +8.2880126e+01 </wgt>
<wgt id='1162'> +7.9193024e+01 </wgt>
<wgt id='1163'> +7.9655010e+01 </wgt>
<wgt id='1164'> +8.0199667e+01 </wgt>
<wgt id='1165'> +7.9021020e+01 </wgt>
<wgt id='1166'> +7.6625731e+01 </wgt>
<wgt id='1167'> +8.1845849e+01 </wgt>
<wgt id='1168'> +8.2653148e+01 </wgt>
<wgt id='1169'> +8.3574593e+01 </wgt>
<wgt id='1170'> +8.0979298e+01 </wgt>
<wgt id='1171'> +8.0890856e+01 </wgt>
<wgt id='1172'> +8.0388683e+01 </wgt>
<wgt id='1173'> +7.7063507e+01 </wgt>
<wgt id='1174'> +7.9208824e+01 </wgt>
<wgt id='1175'> +8.1806922e+01 </wgt>
<wgt id='1176'> +8.1986204e+01 </wgt>
<wgt id='1177'> +8.5123786e+01 </wgt>
<wgt id='1178'> +7.9874723e+01 </wgt>
<wgt id='1179'> +8.1471286e+01 </wgt>
<wgt id='1180'> +7.6303923e+01 </wgt>
<wgt id='1181'> +8.3672508e+01 </wgt>
<wgt id='1182'> +8.3033337e+01 </wgt>
<wgt id='1183'> +7.8012825e+01 </wgt>
<wgt id='1184'> +8.0374106e+01 </wgt>
<wgt id='1185'> +8.1773946e+01 </wgt>
<wgt id='1186'> +7.9674667e+01 </wgt>
<wgt id='1187'> +7.2033513e+01 </wgt>
<wgt id='1188'> +7.7957223e+01 </wgt>
<wgt id='1189'> +7.8672586e+01 </wgt>
<wgt id='1190'> +8.6195748e+01 </wgt>
<wgt id='1191'> +7.9883707e+01 </wgt>
<wgt id='1192'> +7.7184764e+01 </wgt>
<wgt id='1193'> +8.0017777e+01 </wgt>
<wgt id='1194'> +8.5280126e+01 </wgt>
<wgt id='1195'> +8.3441645e+01 </wgt>
<wgt id='1196'> +8.0129119e+01 </wgt>
<wgt id='1197'> +7.7911912e+01 </wgt>
<wgt id='1198'> +8.0532406e+01 </wgt>
<wgt id='1199'> +7.8402261e+01 </wgt>
<wgt id='1200'> +8.6074323e+01 </wgt>
<wgt id='1201'> +7.7945576e+01 </wgt>
<wgt id='1202'> +8.4750726e+01 </wgt>
<wgt id='1203'> +6.8498404e+01 </wgt>
<wgt id='1204'> +7.7193980e+01 </wgt>
<wgt id='1205'> +7.8667675e+01 </wgt>
<wgt id='1206'> +7.0234771e+01 </wgt>
<wgt id='1207'> +7.9050408e+01 </wgt>
<wgt id='1208'> +7.8853071e+01 </wgt>
<wgt id='1209'> +7.9686538e+01 </wgt>
<wgt id='1210'> +8.0139412e+01 </wgt>
<wgt id='1211'> +8.4306172e+01 </wgt>
<wgt id='1212'> +8.4412817e+01 </wgt>
<wgt id='1213'> +8.1561502e+01 </wgt>
<wgt id='1214'> +7.9210044e+01 </wgt>
<wgt id='1215'> +7.6893939e+01 </wgt>
<wgt id='1216'> +8.1480734e+01 </wgt>
<wgt id='1217'> +8.1473307e+01 </wgt>
<wgt id='1218'> +8.1503333e+01 </wgt>
<wgt id='1219'> +8.1255605e+01 </wgt>
<wgt id='1220'> +8.2286865e+01 </wgt>
<wgt id='1221'> +8.1186781e+01 </wgt>
<wgt id='1222'> +8.1138377e+01 </wgt>
<wgt id='1223'> +8.1252128e+01 </wgt>
<wgt id='1224'> +8.1331788e+01 </wgt>
<wgt id='1225'> +8.1485942e+01 </wgt>
<wgt id='1226'> +8.0747518e+01 </wgt>
<wgt id='1227'> +8.1535600e+01 </wgt>
<wgt id='1228'> +8.1700845e+01 </wgt>
<wgt id='1229'> +8.1727719e+01 </wgt>
<wgt id='1230'> +8.1724241e+01 </wgt>
<wgt id='1231'> +8.1141840e+01 </wgt>
<wgt id='1232'> +8.1690163e+01 </wgt>
<wgt id='1233'> +8.1275017e+01 </wgt>
<wgt id='1234'> +8.1577367e+01 </wgt>
<wgt id='1235'> +8.1547506e+01 </wgt>
<wgt id='1236'> +8.1662320e+01 </wgt>
<wgt id='1237'> +8.1746704e+01 </wgt>
<wgt id='1238'> +8.1359125e+01 </wgt>
<wgt id='1239'> +8.1454029e+01 </wgt>
<wgt id='1240'> +8.1776037e+01 </wgt>
<wgt id='1241'> +8.1378807e+01 </wgt>
<wgt id='1242'> +8.1304445e+01 </wgt>
<wgt id='1243'> +8.1995673e+01 </wgt>
<wgt id='1244'> +8.1440784e+01 </wgt>
<wgt id='1245'> +8.1781127e+01 </wgt>
<wgt id='1246'> +8.1972722e+01 </wgt>
<wgt id='1247'> +8.2074196e+01 </wgt>
<wgt id='1248'> +8.0740921e+01 </wgt>
<wgt id='1249'> +8.1551698e+01 </wgt>
<wgt id='1250'> +8.1550713e+01 </wgt>
<wgt id='1251'> +8.0763462e+01 </wgt>
<wgt id='1252'> +8.0661950e+01 </wgt>
<wgt id='1253'> +8.1407085e+01 </wgt>
<wgt id='1254'> +8.0859229e+01 </wgt>
<wgt id='1255'> +8.1318781e+01 </wgt>
<wgt id='1256'> +8.1374238e+01 </wgt>
<wgt id='1257'> +8.0687025e+01 </wgt>
<wgt id='1258'> +8.1409885e+01 </wgt>
<wgt id='1259'> +8.2262821e+01 </wgt>
<wgt id='1260'> +8.1079180e+01 </wgt>
<wgt id='1261'> +8.1343861e+01 </wgt>
<wgt id='1262'> +8.1174040e+01 </wgt>
<wgt id='1263'> +8.1761058e+01 </wgt>
<wgt id='1264'> +8.1654582e+01 </wgt>
<wgt id='1265'> +8.1466551e+01 </wgt>
<wgt id='1266'> +8.1965847e+01 </wgt>
<wgt id='1267'> +8.1804703e+01 </wgt>
<wgt id='1268'> +8.1541641e+01 </wgt>
<wgt id='1269'> +8.1266874e+01 </wgt>
<wgt id='1270'> +8.1538517e+01 </wgt>
<wgt id='1271'> +8.1539988e+01 </wgt>
<wgt id='1272'> +8.1405854e+01 </wgt>
<wgt id='1273'> +8.1192433e+01 </wgt>
<wgt id='1274'> +8.0775140e+01 </wgt>
<wgt id='1275'> +8.1425136e+01 </wgt>
<wgt id='1276'> +8.1550403e+01 </wgt>
<wgt id='1277'> +8.1703179e+01 </wgt>
<wgt id='1278'> +8.1705116e+01 </wgt>
<wgt id='1279'> +8.1737605e+01 </wgt>
<wgt id='1280'> +8.1588269e+01 </wgt>
<wgt id='1281'> +8.1518608e+01 </wgt>
<wgt id='1282'> +8.1551114e+01 </wgt>
<wgt id='1283'> +8.1755618e+01 </wgt>
<wgt id='1284'> +8.1665502e+01 </wgt>
<wgt id='1285'> +8.1487548e+01 </wgt>
<wgt id='1286'> +8.1728129e+01 </wgt>
<wgt id='1287'> +8.1423204e+01 </wgt>
<wgt id='1288'> +8.1781566e+01 </wgt>
<wgt id='1289'> +8.1364567e+01 </wgt>
<wgt id='1290'> +8.1324433e+01 </wgt>
<wgt id='1291'> +8.1257691e+01 </wgt>
<wgt id='1292'> +8.1477155e+01 </wgt>
<wgt id='1293'> +8.1398750e+01 </wgt>
<wgt id='1294'> +8.1575864e+01 </wgt>
<wgt id='1295'> +8.1321440e+01 </wgt>
<wgt id='1296'> +8.1358907e+01 </wgt>
<wgt id='1297'> +8.1541980e+01 </wgt>
<wgt id='1298'> +8.1633476e+01 </wgt>
<wgt id='1299'> +8.1444407e+01 </wgt>
<wgt id='1300'> +8.1362418e+01 </wgt>
<wgt id='1301'> +8.1473009e+01 </wgt>
<wgt id='1302'> +8.1413541e+01 </wgt>
<wgt id='1303'> +8.1526832e+01 </wgt>
<wgt id='1304'> +8.1538701e+01 </wgt>
<wgt id='1305'> +8.1912839e+01 </wgt>
<wgt id='1306'> +8.1447635e+01 </wgt>
<wgt id='1307'> +8.1587510e+01 </wgt>
<wgt id='1308'> +8.1483203e+01 </wgt>
<wgt id='1309'> +8.1216816e+01 </wgt>
<wgt id='1310'> +8.1466165e+01 </wgt>
<wgt id='1311'> +8.1664963e+01 </wgt>
<wgt id='1312'> +8.1386466e+01 </wgt>
<wgt id='1313'> +8.1354191e+01 </wgt>
<wgt id='1314'> +8.1489361e+01 </wgt>
<wgt id='1315'> +8.1653917e+01 </wgt>
<wgt id='1316'> +8.1612958e+01 </wgt>
<wgt id='1317'> +8.1977982e+01 </wgt>
<wgt id='1318'> +8.1825218e+01 </wgt>
<wgt id='1319'> +9.9291261e+01 </wgt>
<wgt id='1320'> +7.3376167e+01 </wgt>
<wgt id='1321'> +7.3594471e+01 </wgt>
<wgt id='1322'> +7.4405710e+01 </wgt>
<wgt id='1323'> +7.2969227e+01 </wgt>
<wgt id='1324'> +7.4284541e+01 </wgt>
<wgt id='1325'> +7.5476176e+01 </wgt>
<wgt id='1326'> +7.2418341e+01 </wgt>
<wgt id='1327'> +7.4094977e+01 </wgt>
<wgt id='1328'> +7.2753410e+01 </wgt>
<wgt id='1329'> +7.2663819e+01 </wgt>
<wgt id='1330'> +7.3853918e+01 </wgt>
<wgt id='1331'> +6.9120996e+01 </wgt>
<wgt id='1332'> +7.6616698e+01 </wgt>
<wgt id='1333'> +7.3964403e+01 </wgt>
<wgt id='1334'> +7.1848830e+01 </wgt>
<wgt id='1335'> +7.5861878e+01 </wgt>
<wgt id='1336'> +6.9990270e+01 </wgt>
<wgt id='1337'> +7.5925152e+01 </wgt>
<wgt id='1338'> +7.0441755e+01 </wgt>
<wgt id='1339'> +7.3557685e+01 </wgt>
<wgt id='1340'> +7.3201248e+01 </wgt>
<wgt id='1341'> +7.3849342e+01 </wgt>
<wgt id='1342'> +7.2586912e+01 </wgt>
<wgt id='1343'> +7.2603182e+01 </wgt>
<wgt id='1344'> +7.3944707e+01 </wgt>
<wgt id='1345'> +7.3425153e+01 </wgt>
<wgt id='1346'> +7.3444604e+01 </wgt>
<wgt id='1347'> +7.4052411e+01 </wgt>
<wgt id='1348'> +7.2473885e+01 </wgt>
<wgt id='1349'> +7.3537534e+01 </wgt>
<wgt id='1350'> +7.3295029e+01 </wgt>
<wgt id='1351'> +7.3337990e+01 </wgt>
<wgt id='1352'> +7.3420178e+01 </wgt>
<wgt id='1353'> +7.2538908e+01 </wgt>
<wgt id='1354'> +7.5226956e+01 </wgt>
<wgt id='1355'> +7.6974197e+01 </wgt>
<wgt id='1356'> +7.0015414e+01 </wgt>
<wgt id='1357'> +7.3518343e+01 </wgt>
<wgt id='1358'> +7.2524246e+01 </wgt>
<wgt id='1359'> +7.1147355e+01 </wgt>
<wgt id='1360'> +7.4228905e+01 </wgt>
<wgt id='1361'> +7.2362677e+01 </wgt>
<wgt id='1362'> +7.4649828e+01 </wgt>
<wgt id='1363'> +7.3684354e+01 </wgt>
<wgt id='1364'> +7.2349874e+01 </wgt>
<wgt id='1365'> +7.3400385e+01 </wgt>
<wgt id='1366'> +7.2717335e+01 </wgt>
<wgt id='1367'> +7.1583482e+01 </wgt>
<wgt id='1368'> +7.3614661e+01 </wgt>
<wgt id='1369'> +7.2822398e+01 </wgt>
<wgt id='1370'> +7.3886540e+01 </wgt>
<wgt id='1371'> +7.2149351e+01 </wgt>
<wgt id='1372'> +7.1331919e+01 </wgt>
<wgt id='1373'> +7.2781716e+01 </wgt>
<wgt id='1374'> +7.2207533e+01 </wgt>
<wgt id='1375'> +7.1731399e+01 </wgt>
<wgt id='1376'> +7.5465530e+01 </wgt>
<wgt id='1377'> +7.2666483e+01 </wgt>
<wgt id='1378'> +7.4028774e+01 </wgt>
<wgt id='1379'> +7.3904218e+01 </wgt>
<wgt id='1380'> +7.3231335e+01 </wgt>
<wgt id='1381'> +7.4669832e+01 </wgt>
<wgt id='1382'> +7.1457680e+01 </wgt>
<wgt id='1383'> +7.9859899e+01 </wgt>
<wgt id='1384'> +8.1136876e+01 </wgt>
<wgt id='1385'> +8.0037938e+01 </wgt>
<wgt id='1386'> +8.0086599e+01 </wgt>
<wgt id='1387'> +7.9990247e+01 </wgt>
<wgt id='1388'> +8.0150769e+01 </wgt>
<wgt id='1389'> +7.9844935e+01 </wgt>
<wgt id='1390'> +8.0426907e+01 </wgt>
<wgt id='1391'> +7.9585849e+01 </wgt>
<wgt id='1392'> +8.0537679e+01 </wgt>
<wgt id='1393'> +7.9702752e+01 </wgt>
<wgt id='1394'> +7.9874279e+01 </wgt>
<wgt id='1395'> +8.0249943e+01 </wgt>
<wgt id='1396'> +7.9325736e+01 </wgt>
<wgt id='1397'> +8.0410641e+01 </wgt>
<wgt id='1398'> +7.9720803e+01 </wgt>
<wgt id='1399'> +8.0280145e+01 </wgt>
<wgt id='1400'> +8.0581483e+01 </wgt>
<wgt id='1401'> +7.9619553e+01 </wgt>
<wgt id='1402'> +7.8664176e+01 </wgt>
<wgt id='1403'> +8.0665673e+01 </wgt>
<wgt id='1404'> +8.0006234e+01 </wgt>
<wgt id='1405'> +8.0065050e+01 </wgt>
<wgt id='1406'> +8.0037196e+01 </wgt>
<wgt id='1407'> +8.0030969e+01 </wgt>
<wgt id='1408'> +7.9242304e+01 </wgt>
<wgt id='1409'> +8.1651382e+01 </wgt>
<wgt id='1410'> +8.0137555e+01 </wgt>
<wgt id='1411'> +7.9712659e+01 </wgt>
<wgt id='1412'> +7.9920423e+01 </wgt>
<wgt id='1413'> +7.9929247e+01 </wgt>
<wgt id='1414'> +7.9706969e+01 </wgt>
<wgt id='1415'> +8.0290835e+01 </wgt>
<wgt id='1416'> +7.9357654e+01 </wgt>
<wgt id='1417'> +8.0202682e+01 </wgt>
<wgt id='1418'> +7.9720614e+01 </wgt>
<wgt id='1419'> +8.0670298e+01 </wgt>
<wgt id='1420'> +7.9425159e+01 </wgt>
<wgt id='1421'> +8.0145832e+01 </wgt>
<wgt id='1422'> +7.9332814e+01 </wgt>
<wgt id='1423'> +8.0782865e+01 </wgt>
<wgt id='1424'> +8.0723913e+01 </wgt>
<wgt id='1425'> +7.8594226e+01 </wgt>
<wgt id='1426'> +8.1014653e+01 </wgt>
<wgt id='1427'> +7.9750318e+01 </wgt>
<wgt id='1428'> +7.9016069e+01 </wgt>
<wgt id='1429'> +7.9344668e+01 </wgt>
<wgt id='1430'> +8.0816805e+01 </wgt>
<wgt id='1431'> +8.0223999e+01 </wgt>
<wgt id='1432'> +8.0432824e+01 </wgt>
<wgt id='1433'> +8.0750455e+01 </wgt>
<wgt id='1434'> +7.9143462e+01 </wgt>
<wgt id='1435'> +7.9432921e+01 </wgt>
<wgt id='1436'> +7.5405610e+01 </wgt>
<wgt id='1437'> +7.5394249e+01 </wgt>
<wgt id='1438'> +7.5569947e+01 </wgt>
<wgt id='1439'> +7.5416683e+01 </wgt>
<wgt id='1440'> +7.4900297e+01 </wgt>
<wgt id='1441'> +7.6117148e+01 </wgt>
<wgt id='1442'> +7.5170917e+01 </wgt>
<wgt id='1443'> +7.5242149e+01 </wgt>
<wgt id='1444'> +7.5650348e+01 </wgt>
<wgt id='1445'> +7.5031400e+01 </wgt>
<wgt id='1446'> +7.6029923e+01 </wgt>
<wgt id='1447'> +7.5164101e+01 </wgt>
<wgt id='1448'> +7.5033288e+01 </wgt>
<wgt id='1449'> +7.5431765e+01 </wgt>
<wgt id='1450'> +7.5376098e+01 </wgt>
<wgt id='1451'> +7.5355466e+01 </wgt>
<wgt id='1452'> +7.5576743e+01 </wgt>
<wgt id='1453'> +7.5599035e+01 </wgt>
<wgt id='1454'> +7.5501430e+01 </wgt>
<wgt id='1455'> +7.5726663e+01 </wgt>
<wgt id='1456'> +7.6324746e+01 </wgt>
<wgt id='1457'> +7.5548838e+01 </wgt>
<wgt id='1458'> +7.5049026e+01 </wgt>
<wgt id='1459'> +7.5825531e+01 </wgt>
<wgt id='1460'> +7.5371826e+01 </wgt>
<wgt id='1461'> +7.4597080e+01 </wgt>
<wgt id='1462'> +7.6428838e+01 </wgt>
<wgt id='1463'> +7.4203211e+01 </wgt>
<wgt id='1464'> +7.5517104e+01 </wgt>
<wgt id='1465'> +7.3081018e+01 </wgt>
<wgt id='1466'> +7.6417126e+01 </wgt>
<wgt id='1467'> +7.7006751e+01 </wgt>
<wgt id='1468'> +7.6436736e+01 </wgt>
<wgt id='1469'> +7.7771157e+01 </wgt>
<wgt id='1470'> +7.6324517e+01 </wgt>
<wgt id='1471'> +7.6116717e+01 </wgt>
<wgt id='1472'> +7.6344657e+01 </wgt>
<wgt id='1473'> +7.6421384e+01 </wgt>
<wgt id='1474'> +7.6953832e+01 </wgt>
<wgt id='1475'> +7.7103439e+01 </wgt>
<wgt id='1476'> +7.7866437e+01 </wgt>
<wgt id='1477'> +7.6144969e+01 </wgt>
<wgt id='1478'> +7.6412795e+01 </wgt>
<wgt id='1479'> +7.4644635e+01 </wgt>
<wgt id='1480'> +7.6381277e+01 </wgt>
<wgt id='1481'> +7.6528252e+01 </wgt>
<wgt id='1482'> +7.6001332e+01 </wgt>
<wgt id='1483'> +7.7369150e+01 </wgt>
<wgt id='1484'> +7.6887848e+01 </wgt>
<wgt id='1485'> +7.6302747e+01 </wgt>
<wgt id='1486'> +7.7165154e+01 </wgt>
<wgt id='1487'> +7.6364897e+01 </wgt>
<wgt id='1488'> +7.6688255e+01 </wgt>
<wgt id='1489'> +7.7319566e+01 </wgt>
<wgt id='1490'> +7.6035008e+01 </wgt>
<wgt id='1491'> +7.4577687e+01 </wgt>
<wgt id='1492'> +7.5894355e+01 </wgt>
<wgt id='1493'> +7.7546195e+01 </wgt>
<wgt id='1494'> +7.5511407e+01 </wgt>
<wgt id='1495'> +7.6399672e+01 </wgt>
<wgt id='1496'> +7.7566919e+01 </wgt>
<wgt id='1497'> +7.6301550e+01 </wgt>
<wgt id='1498'> +7.6603182e+01 </wgt>
<wgt id='1499'> +7.6856929e+01 </wgt>
<wgt id='1500'> +7.6501139e+01 </wgt>
<wgt id='1501'> +7.7057758e+01 </wgt>
<wgt id='1502'> +7.6414354e+01 </wgt>
<wgt id='1503'> +7.6148877e+01 </wgt>
<wgt id='1504'> +7.6787474e+01 </wgt>
<wgt id='1505'> +7.6858835e+01 </wgt>
<wgt id='1506'> +7.6450306e+01 </wgt>
<wgt id='1507'> +7.6584045e+01 </wgt>
<wgt id='1508'> +7.7079263e+01 </wgt>
<wgt id='1509'> +7.6336200e+01 </wgt>
<wgt id='1510'> +7.6494638e+01 </wgt>
<wgt id='1511'> +7.7043377e+01 </wgt>
<wgt id='1512'> +7.6138468e+01 </wgt>
<wgt id='1513'> +7.6200520e+01 </wgt>
<wgt id='1514'> +7.6556939e+01 </wgt>
<wgt id='1515'> +7.6331513e+01 </wgt>
<wgt id='1516'> +7.6332813e+01 </wgt>
<wgt id='1517'> +7.6027444e+01 </wgt>
<wgt id='1518'> +7.6227953e+01 </wgt>
<wgt id='1519'> +7.6271696e+01 </wgt>
<wgt id='1520'> +7.5914618e+01 </wgt>
<wgt id='1521'> +7.6315441e+01 </wgt>
<wgt id='1522'> +7.6472557e+01 </wgt>
<wgt id='1523'> +7.6381882e+01 </wgt>
<wgt id='1524'> +7.6874239e+01 </wgt>
<wgt id='1525'> +7.6219671e+01 </wgt>
<wgt id='1526'> +7.6122463e+01 </wgt>
<wgt id='1527'> +7.6220981e+01 </wgt>
<wgt id='1528'> +7.6672657e+01 </wgt>
<wgt id='1529'> +7.6469516e+01 </wgt>
<wgt id='1530'> +7.6371435e+01 </wgt>
<wgt id='1531'> +7.6464131e+01 </wgt>
<wgt id='1532'> +7.6726983e+01 </wgt>
<wgt id='1533'> +7.6169891e+01 </wgt>
<wgt id='1534'> +7.6474286e+01 </wgt>
<wgt id='1535'> +7.6329966e+01 </wgt>
<wgt id='1536'> +7.6672607e+01 </wgt>
<wgt id='1537'> +7.6178890e+01 </wgt>
<wgt id='1538'> +7.6416774e+01 </wgt>
<wgt id='1539'> +7.6361113e+01 </wgt>
<wgt id='1540'> +7.6467375e+01 </wgt>
<wgt id='1541'> +7.6448085e+01 </wgt>
<wgt id='1542'> +7.6359749e+01 </wgt>
<wgt id='1543'> +7.6633123e+01 </wgt>
<wgt id='1544'> +7.6405493e+01 </wgt>
<wgt id='1545'> +7.6527232e+01 </wgt>
<wgt id='1546'> +7.6455028e+01 </wgt>
<wgt id='1547'> +7.6322400e+01 </wgt>
<wgt id='1548'> +7.6457359e+01 </wgt>
<wgt id='1549'> +7.6439380e+01 </wgt>
<wgt id='1550'> +7.6353722e+01 </wgt>
<wgt id='1551'> +7.6385749e+01 </wgt>
<wgt id='1552'> +7.6552245e+01 </wgt>
<wgt id='1553'> +7.6494576e+01 </wgt>
<wgt id='1554'> +7.6336823e+01 </wgt>
<wgt id='1555'> +7.6508756e+01 </wgt>
<wgt id='1556'> +7.6417539e+01 </wgt>
<wgt id='1557'> +7.6390308e+01 </wgt>
<wgt id='1558'> +7.6401979e+01 </wgt>
<wgt id='1559'> +7.6355618e+01 </wgt>
<wgt id='1560'> +7.6428288e+01 </wgt>
<wgt id='1561'> +7.6523971e+01 </wgt>
<wgt id='1562'> +7.6404514e+01 </wgt>
<wgt id='1563'> +7.6343102e+01 </wgt>
<wgt id='1564'> +7.6414252e+01 </wgt>
<wgt id='1565'> +7.6366017e+01 </wgt>
<wgt id='1566'> +7.6420552e+01 </wgt>
<wgt id='1567'> +7.5642496e+01 </wgt>
<wgt id='1568'> +7.6849712e+01 </wgt>
<wgt id='1569'> +7.7444097e+01 </wgt>
<wgt id='1570'> +7.8050112e+01 </wgt>
<wgt id='1571'> +7.7678383e+01 </wgt>
<wgt id='1572'> +7.7233122e+01 </wgt>
<wgt id='1573'> +7.8041913e+01 </wgt>
<wgt id='1574'> +7.7945485e+01 </wgt>
<wgt id='1575'> +7.7422391e+01 </wgt>
<wgt id='1576'> +7.7699231e+01 </wgt>
<wgt id='1577'> +7.7543070e+01 </wgt>
<wgt id='1578'> +7.7034571e+01 </wgt>
<wgt id='1579'> +7.7044163e+01 </wgt>
<wgt id='1580'> +7.7906974e+01 </wgt>
<wgt id='1581'> +7.7253867e+01 </wgt>
<wgt id='1582'> +7.7004787e+01 </wgt>
<wgt id='1583'> +7.7503773e+01 </wgt>
<wgt id='1584'> +7.9836355e+01 </wgt>
<wgt id='1585'> +7.6715245e+01 </wgt>
<wgt id='1586'> +7.7426964e+01 </wgt>
<wgt id='1587'> +7.8222655e+01 </wgt>
<wgt id='1588'> +7.6237399e+01 </wgt>
<wgt id='1589'> +7.6706694e+01 </wgt>
<wgt id='1590'> +7.8095482e+01 </wgt>
<wgt id='1591'> +7.6534581e+01 </wgt>
<wgt id='1592'> +7.7394946e+01 </wgt>
<wgt id='1593'> +7.7783121e+01 </wgt>
<wgt id='1594'> +7.7984354e+01 </wgt>
<wgt id='1595'> +7.7499627e+01 </wgt>
<wgt id='1596'> +7.7045382e+01 </wgt>
<wgt id='1597'> +7.7153614e+01 </wgt>
<wgt id='1598'> +7.7303419e+01 </wgt>
<wgt id='1599'> +7.7466479e+01 </wgt>
<wgt id='1600'> +7.6224088e+01 </wgt>
<wgt id='1601'> +7.7326091e+01 </wgt>
<wgt id='1602'> +7.6314760e+01 </wgt>
<wgt id='1603'> +7.6892596e+01 </wgt>
<wgt id='1604'> +7.8039118e+01 </wgt>
<wgt id='1605'> +7.7634108e+01 </wgt>
<wgt id='1606'> +7.7107437e+01 </wgt>
<wgt id='1607'> +7.7080566e+01 </wgt>
<wgt id='1608'> +7.8203801e+01 </wgt>
<wgt id='1609'> +7.7267417e+01 </wgt>
<wgt id='1610'> +7.7307307e+01 </wgt>
<wgt id='1611'> +7.7429699e+01 </wgt>
<wgt id='1612'> +7.7110717e+01 </wgt>
<wgt id='1613'> +7.7531750e+01 </wgt>
<wgt id='1614'> +7.7570652e+01 </wgt>
<wgt id='1615'> +7.7418385e+01 </wgt>
<wgt id='1616'> +7.7238949e+01 </wgt>
<wgt id='1617'> +7.7640163e+01 </wgt>
<wgt id='1618'> +7.7803452e+01 </wgt>
<wgt id='1619'> +7.7651158e+01 </wgt>
<wgt id='1620'> +7.7492358e+01 </wgt>
<wgt id='1621'> +7.7329968e+01 </wgt>
<wgt id='1622'> +7.6902232e+01 </wgt>
<wgt id='1623'> +7.7350570e+01 </wgt>
<wgt id='1624'> +7.7520305e+01 </wgt>
<wgt id='1625'> +7.7679835e+01 </wgt>
<wgt id='1626'> +7.7446267e+01 </wgt>
<wgt id='1627'> +7.7269704e+01 </wgt>
<wgt id='1628'> +7.7270026e+01 </wgt>
<wgt id='1629'> +7.7178151e+01 </wgt>
<wgt id='1630'> +7.7429121e+01 </wgt>
<wgt id='1631'> +7.7789933e+01 </wgt>
<wgt id='1632'> +7.8105650e+01 </wgt>
<wgt id='1633'> +7.7426687e+01 </wgt>
<wgt id='1634'> +7.7077271e+01 </wgt>
<wgt id='1635'> +7.7831002e+01 </wgt>
<wgt id='1636'> +7.7523893e+01 </wgt>
<wgt id='1637'> +7.7422770e+01 </wgt>
<wgt id='1638'> +7.7460754e+01 </wgt>
<wgt id='1639'> +7.7352485e+01 </wgt>
<wgt id='1640'> +7.7400334e+01 </wgt>
<wgt id='1641'> +7.7639036e+01 </wgt>
<wgt id='1642'> +7.7133320e+01 </wgt>
<wgt id='1643'> +7.7409116e+01 </wgt>
<wgt id='1644'> +7.7462872e+01 </wgt>
<wgt id='1645'> +7.7292523e+01 </wgt>
<wgt id='1646'> +7.7357267e+01 </wgt>
<wgt id='1647'> +7.7502537e+01 </wgt>
<wgt id='1648'> +7.7360498e+01 </wgt>
<wgt id='1649'> +7.7562588e+01 </wgt>
<wgt id='1650'> +7.7359801e+01 </wgt>
<wgt id='1651'> +7.7431603e+01 </wgt>
<wgt id='1652'> +7.7260293e+01 </wgt>
<wgt id='1653'> +7.7492087e+01 </wgt>
<wgt id='1654'> +7.7479944e+01 </wgt>
<wgt id='1655'> +7.7527747e+01 </wgt>
<wgt id='1656'> +7.7360180e+01 </wgt>
<wgt id='1657'> +7.7526702e+01 </wgt>
<wgt id='1658'> +7.7438841e+01 </wgt>
<wgt id='1659'> +7.7454267e+01 </wgt>
<wgt id='1660'> +7.7540795e+01 </wgt>
<wgt id='1661'> +7.7508817e+01 </wgt>
<wgt id='1662'> +7.7416895e+01 </wgt>
<wgt id='1663'> +7.7392962e+01 </wgt>
<wgt id='1664'> +7.7456434e+01 </wgt>
<wgt id='1665'> +7.7302445e+01 </wgt>
<wgt id='1666'> +7.7405544e+01 </wgt>
<wgt id='1667'> +7.7483837e+01 </wgt>
<wgt id='1668'> +7.7442719e+01 </wgt>
<wgt id='1669'> +7.7395356e+01 </wgt>
<wgt id='1670'> +7.6810829e+01 </wgt>
<wgt id='1671'> +7.7854290e+01 </wgt>
<wgt id='1672'> +7.6413632e+01 </wgt>
<wgt id='1673'> +7.9215162e+01 </wgt>
<wgt id='1674'> +7.5876381e+01 </wgt>
<wgt id='1675'> +7.6328907e+01 </wgt>
<wgt id='1676'> +7.6932952e+01 </wgt>
<wgt id='1677'> +7.7063816e+01 </wgt>
<wgt id='1678'> +7.8086463e+01 </wgt>
<wgt id='1679'> +7.6274770e+01 </wgt>
<wgt id='1680'> +7.6234884e+01 </wgt>
<wgt id='1681'> +7.7061917e+01 </wgt>
<wgt id='1682'> +7.6491829e+01 </wgt>
<wgt id='1683'> +7.5754613e+01 </wgt>
<wgt id='1684'> +7.5360714e+01 </wgt>
<wgt id='1685'> +7.6209668e+01 </wgt>
<wgt id='1686'> +7.5570635e+01 </wgt>
<wgt id='1687'> +7.5156807e+01 </wgt>
<wgt id='1688'> +7.6475938e+01 </wgt>
<wgt id='1689'> +7.5871732e+01 </wgt>
<wgt id='1690'> +7.5968707e+01 </wgt>
<wgt id='1691'> +7.6273068e+01 </wgt>
<wgt id='1692'> +7.6926084e+01 </wgt>
<wgt id='1693'> +7.6366110e+01 </wgt>
<wgt id='1694'> +7.6670040e+01 </wgt>
<wgt id='1695'> +7.6401236e+01 </wgt>
<wgt id='1696'> +7.7050252e+01 </wgt>
<wgt id='1697'> +7.6232990e+01 </wgt>
<wgt id='1698'> +7.6480380e+01 </wgt>
<wgt id='1699'> +7.5586630e+01 </wgt>
<wgt id='1700'> +7.6652991e+01 </wgt>
<wgt id='1701'> +7.6479606e+01 </wgt>
<wgt id='1702'> +7.6271850e+01 </wgt>
<wgt id='1703'> +7.5642496e+01 </wgt>
<wgt id='1704'> +7.6849712e+01 </wgt>
<wgt id='1705'> +7.7439776e+01 </wgt>
<wgt id='1706'> +7.8306113e+01 </wgt>
<wgt id='1707'> +7.9930748e+01 </wgt>
<wgt id='1708'> +7.7385654e+01 </wgt>
<wgt id='1709'> +7.7476197e+01 </wgt>
<wgt id='1710'> +7.7555364e+01 </wgt>
<wgt id='1711'> +7.7346918e+01 </wgt>
<wgt id='1712'> +7.7119327e+01 </wgt>
<wgt id='1713'> +7.8411051e+01 </wgt>
<wgt id='1714'> +7.5879124e+01 </wgt>
<wgt id='1715'> +7.7911603e+01 </wgt>
<wgt id='1716'> +7.8586644e+01 </wgt>
<wgt id='1717'> +7.7544703e+01 </wgt>
<wgt id='1718'> +7.7891630e+01 </wgt>
<wgt id='1719'> +7.7443960e+01 </wgt>
<wgt id='1720'> +7.8652309e+01 </wgt>
<wgt id='1721'> +7.7904149e+01 </wgt>
<wgt id='1722'> +7.7596971e+01 </wgt>
<wgt id='1723'> +7.7494896e+01 </wgt>
<wgt id='1724'> +7.6968308e+01 </wgt>
<wgt id='1725'> +7.7202451e+01 </wgt>
<wgt id='1726'> +7.7165035e+01 </wgt>
<wgt id='1727'> +7.7575919e+01 </wgt>
<wgt id='1728'> +7.7428833e+01 </wgt>
<wgt id='1729'> +7.7184982e+01 </wgt>
<wgt id='1730'> +7.7498957e+01 </wgt>
<wgt id='1731'> +7.6490688e+01 </wgt>
<wgt id='1732'> +7.7255347e+01 </wgt>
<wgt id='1733'> +7.6928127e+01 </wgt>
<wgt id='1734'> +7.7792196e+01 </wgt>
<wgt id='1735'> +7.7517150e+01 </wgt>
<wgt id='1736'> +7.6810829e+01 </wgt>
<wgt id='1737'> +7.7854290e+01 </wgt>
<wgt id='1738'> +5.7405159e+01 </wgt>
<wgt id='1739'> +5.7587967e+01 </wgt>
<wgt id='1740'> +5.7223509e+01 </wgt>
<wgt id='1741'> +5.7307461e+01 </wgt>
<wgt id='1742'> +5.7502180e+01 </wgt>
<wgt id='1743'> +5.7489633e+01 </wgt>
<wgt id='1744'> +5.7320665e+01 </wgt>
<wgt id='1745'> +5.6898114e+01 </wgt>
<wgt id='1746'> +5.7903442e+01 </wgt>
<wgt id='1747'> +5.7815945e+01 </wgt>
<wgt id='1748'> +5.6997372e+01 </wgt>
<wgt id='1749'> +5.7589090e+01 </wgt>
<wgt id='1750'> +5.7187067e+01 </wgt>
<wgt id='1751'> +5.7557108e+01 </wgt>
<wgt id='1752'> +5.7248490e+01 </wgt>
<wgt id='1753'> +5.7406271e+01 </wgt>
<wgt id='1754'> +5.7518800e+01 </wgt>
<wgt id='1755'> +5.7133052e+01 </wgt>
<wgt id='1756'> +5.7583963e+01 </wgt>
<wgt id='1757'> +5.7765111e+01 </wgt>
<wgt id='1758'> +5.7088356e+01 </wgt>
<wgt id='1759'> +5.6310543e+01 </wgt>
<wgt id='1760'> +5.8470218e+01 </wgt>
<wgt id='1761'> +6.0033016e+01 </wgt>
<wgt id='1762'> +5.4872498e+01 </wgt>
<wgt id='1763'> +5.7442008e+01 </wgt>
<wgt id='1764'> +5.7444210e+01 </wgt>
<wgt id='1765'> +5.7245057e+01 </wgt>
<wgt id='1766'> +5.7615491e+01 </wgt>
<wgt id='1767'> +5.7405159e+01 </wgt>
<wgt id='1768'> +6.3320597e+01 </wgt>
<wgt id='1769'> +5.1245413e+01 </wgt>
<wgt id='1770'> +7.6705919e+01 </wgt>
<wgt id='1771'> +7.3293467e+01 </wgt>
<wgt id='1772'> +5.6665559e+01 </wgt>
<wgt id='1773'> +5.7538414e+01 </wgt>
<wgt id='1774'> +5.7434805e+01 </wgt>
<wgt id='1775'> +5.7246626e+01 </wgt>
<wgt id='1776'> +5.6927734e+01 </wgt>
<wgt id='1777'> +5.7708580e+01 </wgt>
<wgt id='1778'> +5.7124318e+01 </wgt>
<wgt id='1779'> +5.7878391e+01 </wgt>
<wgt id='1780'> +5.4647608e+01 </wgt>
<wgt id='1781'> +5.3359216e+01 </wgt>
<wgt id='1782'> +5.3480253e+01 </wgt>
<wgt id='1783'> +5.3202385e+01 </wgt>
<wgt id='1784'> +5.3266658e+01 </wgt>
<wgt id='1785'> +5.3414722e+01 </wgt>
<wgt id='1786'> +5.3401583e+01 </wgt>
<wgt id='1787'> +5.3280409e+01 </wgt>
<wgt id='1788'> +5.2869226e+01 </wgt>
<wgt id='1789'> +5.3800326e+01 </wgt>
<wgt id='1790'> +5.3576560e+01 </wgt>
<wgt id='1791'> +5.3099640e+01 </wgt>
<wgt id='1792'> +5.3424605e+01 </wgt>
<wgt id='1793'> +5.3258977e+01 </wgt>
<wgt id='1794'> +5.3269206e+01 </wgt>
<wgt id='1795'> +5.3417134e+01 </wgt>
<wgt id='1796'> +5.3425217e+01 </wgt>
<wgt id='1797'> +5.3382801e+01 </wgt>
<wgt id='1798'> +5.3344869e+01 </wgt>
<wgt id='1799'> +5.3326851e+01 </wgt>
<wgt id='1800'> +5.3332484e+01 </wgt>
<wgt id='1801'> +5.3350979e+01 </wgt>
<wgt id='1802'> +5.3967356e+01 </wgt>
<wgt id='1803'> +5.2648963e+01 </wgt>
<wgt id='1804'> +5.5057430e+01 </wgt>
<wgt id='1805'> +5.1758275e+01 </wgt>
<wgt id='1806'> +5.7250024e+01 </wgt>
<wgt id='1807'> +4.9977979e+01 </wgt>
<wgt id='1808'> +5.6052912e+01 </wgt>
<wgt id='1809'> +5.0987716e+01 </wgt>
<wgt id='1810'> +5.3359216e+01 </wgt>
<wgt id='1811'> +5.9113738e+01 </wgt>
<wgt id='1812'> +4.8018677e+01 </wgt>
<wgt id='1813'> +7.0006001e+01 </wgt>
<wgt id='1814'> +6.4493460e+01 </wgt>
<wgt id='1815'> +5.7758362e+01 </wgt>
<wgt id='1816'> +5.4512496e+01 </wgt>
<wgt id='1817'> +5.3279043e+01 </wgt>
<wgt id='1818'> +5.2365788e+01 </wgt>
<wgt id='1819'> +5.5201563e+01 </wgt>
<wgt id='1820'> +5.8991339e+01 </wgt>
<wgt id='1821'> +5.6553686e+01 </wgt>
<wgt id='1822'> +5.0031088e+01 </wgt>
<wgt id='1823'> +5.3113283e+01 </wgt>
<wgt id='1824'> +7.2441243e+01 </wgt>
<wgt id='1825'> +7.2397208e+01 </wgt>
<wgt id='1826'> +7.2353055e+01 </wgt>
<wgt id='1827'> +7.2308725e+01 </wgt>
<wgt id='1828'> +7.2264753e+01 </wgt>
<wgt id='1829'> +7.2220490e+01 </wgt>
<wgt id='1830'> +7.2176487e+01 </wgt>
<wgt id='1831'> +7.2132181e+01 </wgt>
<wgt id='1832'> +7.2088100e+01 </wgt>
<wgt id='1833'> +7.2043977e+01 </wgt>
<wgt id='1834'> +7.1999852e+01 </wgt>
<wgt id='1835'> +7.1955823e+01 </wgt>
<wgt id='1836'> +7.1911707e+01 </wgt>
<wgt id='1837'> +7.1867726e+01 </wgt>
<wgt id='1838'> +7.1823416e+01 </wgt>
<wgt id='1839'> +7.1779539e+01 </wgt>
<wgt id='1840'> +7.1735611e+01 </wgt>
<wgt id='1841'> +7.1691363e+01 </wgt>
<wgt id='1842'> +7.1647501e+01 </wgt>
<wgt id='1843'> +7.1603372e+01 </wgt>
<wgt id='1844'> +7.1559456e+01 </wgt>
<wgt id='1845'> +7.1515397e+01 </wgt>
<wgt id='1846'> +7.1471541e+01 </wgt>
<wgt id='1847'> +7.1427587e+01 </wgt>
<wgt id='1848'> +7.1383399e+01 </wgt>
<wgt id='1849'> +7.1339654e+01 </wgt>
<wgt id='1850'> +7.1295769e+01 </wgt>
<wgt id='1851'> +7.1251698e+01 </wgt>
<wgt id='1852'> +7.1207976e+01 </wgt>
<wgt id='1853'> +7.1164036e+01 </wgt>
<wgt id='1854'> +7.1120039e+01 </wgt>
<wgt id='1855'> +7.7032043e+01 </wgt>
<wgt id='1856'> +7.7619982e+01 </wgt>
<wgt id='1857'> +7.7257561e+01 </wgt>
<wgt id='1858'> +7.6825922e+01 </wgt>
<wgt id='1859'> +7.7623997e+01 </wgt>
<wgt id='1860'> +7.7531489e+01 </wgt>
<wgt id='1861'> +7.7022599e+01 </wgt>
<wgt id='1862'> +7.7294977e+01 </wgt>
<wgt id='1863'> +7.7130184e+01 </wgt>
<wgt id='1864'> +7.6628395e+01 </wgt>
<wgt id='1865'> +7.6632139e+01 </wgt>
<wgt id='1866'> +7.7508256e+01 </wgt>
<wgt id='1867'> +7.6852945e+01 </wgt>
<wgt id='1868'> +7.6606050e+01 </wgt>
<wgt id='1869'> +7.7087560e+01 </wgt>
<wgt id='1870'> +7.9388050e+01 </wgt>
<wgt id='1871'> +7.6322862e+01 </wgt>
<wgt id='1872'> +7.7007938e+01 </wgt>
<wgt id='1873'> +7.7801985e+01 </wgt>
<wgt id='1874'> +7.5840627e+01 </wgt>
<wgt id='1875'> +7.6310065e+01 </wgt>
<wgt id='1876'> +7.7672948e+01 </wgt>
<wgt id='1877'> +7.6122608e+01 </wgt>
<wgt id='1878'> +7.6986490e+01 </wgt>
<wgt id='1879'> +7.7358829e+01 </wgt>
<wgt id='1880'> +7.7557700e+01 </wgt>
<wgt id='1881'> +7.7074153e+01 </wgt>
<wgt id='1882'> +7.6648200e+01 </wgt>
<wgt id='1883'> +7.6748843e+01 </wgt>
<wgt id='1884'> +7.6885270e+01 </wgt>
<wgt id='1885'> +7.7047593e+01 </wgt>
<wgt id='1886'> +7.5830977e+01 </wgt>
<wgt id='1887'> +7.6909148e+01 </wgt>
<wgt id='1888'> +7.5902288e+01 </wgt>
<wgt id='1889'> +7.6483212e+01 </wgt>
<wgt id='1890'> +7.7621465e+01 </wgt>
<wgt id='1891'> +7.7224428e+01 </wgt>
<wgt id='1892'> +7.6698408e+01 </wgt>
<wgt id='1893'> +7.6670366e+01 </wgt>
<wgt id='1894'> +7.7786357e+01 </wgt>
<wgt id='1895'> +7.6859776e+01 </wgt>
<wgt id='1896'> +7.6890420e+01 </wgt>
<wgt id='1897'> +7.7015680e+01 </wgt>
<wgt id='1898'> +7.6708285e+01 </wgt>
<wgt id='1899'> +7.7116363e+01 </wgt>
<wgt id='1900'> +7.7156455e+01 </wgt>
<wgt id='1901'> +7.7012991e+01 </wgt>
<wgt id='1902'> +7.6821623e+01 </wgt>
<wgt id='1903'> +7.7228653e+01 </wgt>
<wgt id='1904'> +7.7388074e+01 </wgt>
<wgt id='1905'> +7.7238013e+01 </wgt>
<wgt id='1906'> +7.7078915e+01 </wgt>
<wgt id='1907'> +7.6917640e+01 </wgt>
<wgt id='1908'> +7.6492397e+01 </wgt>
<wgt id='1909'> +7.6940430e+01 </wgt>
<wgt id='1910'> +7.7108617e+01 </wgt>
<wgt id='1911'> +7.7261713e+01 </wgt>
<wgt id='1912'> +7.7033448e+01 </wgt>
<wgt id='1913'> +7.6863710e+01 </wgt>
<wgt id='1914'> +7.6860594e+01 </wgt>
<wgt id='1915'> +7.6769501e+01 </wgt>
<wgt id='1916'> +7.7016945e+01 </wgt>
<wgt id='1917'> +7.7378636e+01 </wgt>
<wgt id='1918'> +7.7693599e+01 </wgt>
<wgt id='1919'> +7.7015630e+01 </wgt>
<wgt id='1920'> +7.6665202e+01 </wgt>
<wgt id='1921'> +7.7418844e+01 </wgt>
<wgt id='1922'> +7.7107679e+01 </wgt>
<wgt id='1923'> +7.7010373e+01 </wgt>
<wgt id='1924'> +7.7044573e+01 </wgt>
<wgt id='1925'> +7.6941223e+01 </wgt>
<wgt id='1926'> +7.6988602e+01 </wgt>
<wgt id='1927'> +7.7226805e+01 </wgt>
<wgt id='1928'> +7.6718944e+01 </wgt>
<wgt id='1929'> +7.6995912e+01 </wgt>
<wgt id='1930'> +7.7050895e+01 </wgt>
<wgt id='1931'> +7.6883605e+01 </wgt>
<wgt id='1932'> +7.6944248e+01 </wgt>
<wgt id='1933'> +7.7094266e+01 </wgt>
<wgt id='1934'> +7.6948879e+01 </wgt>
<wgt id='1935'> +7.7146119e+01 </wgt>
<wgt id='1936'> +7.6951117e+01 </wgt>
<wgt id='1937'> +7.7020589e+01 </wgt>
<wgt id='1938'> +7.6844690e+01 </wgt>
<wgt id='1939'> +7.7078601e+01 </wgt>
<wgt id='1940'> +7.7070329e+01 </wgt>
<wgt id='1941'> +7.7119526e+01 </wgt>
<wgt id='1942'> +7.6946924e+01 </wgt>
<wgt id='1943'> +7.7115139e+01 </wgt>
<wgt id='1944'> +7.7024732e+01 </wgt>
<wgt id='1945'> +7.7042664e+01 </wgt>
<wgt id='1946'> +7.7129535e+01 </wgt>
<wgt id='1947'> +7.7096273e+01 </wgt>
<wgt id='1948'> +7.7005264e+01 </wgt>
<wgt id='1949'> +7.6976765e+01 </wgt>
<wgt id='1950'> +7.7043629e+01 </wgt>
<wgt id='1951'> +7.6889528e+01 </wgt>
<wgt id='1952'> +7.6992950e+01 </wgt>
<wgt id='1953'> +7.7072255e+01 </wgt>
<wgt id='1954'> +7.7032934e+01 </wgt>
<wgt id='1955'> +7.6983727e+01 </wgt>
<wgt id='1956'> +7.7031775e+01 </wgt>
<wgt id='1957'> +7.7033510e+01 </wgt>
<wgt id='1958'> +7.7032324e+01 </wgt>
<wgt id='1959'> +7.7032373e+01 </wgt>
<wgt id='1960'> +7.7032870e+01 </wgt>
<wgt id='1961'> +7.7032161e+01 </wgt>
<wgt id='1962'> +7.7033798e+01 </wgt>
</rwgt>
</event>
<event npLO=" -1 " npNLO=" 0 ">
 6      0 +1.5146096e+02 2.69842450e+01 7.54677110e-03 1.18165500e-01
       -2 -1    0    0    0  501 +0.0000000000e+00 +0.0000000000e+00 +3.5832425000e+02 3.5832425000e+02 0.0000000000e+00 0.0000e+00 9.0000e+00
        2 -1    0    0  501    0 +0.0000000000e+00 +0.0000000000e+00 -5.6357508000e+00 5.6357508000e+00 0.0000000000e+00 0.0000e+00 9.0000e+00
       23  2    1    2    0    0 +0.0000000000e+00 +0.0000000000e+00 +3.5268850000e+02 3.6396000000e+02 8.9876052000e+01 0.0000e+00 0.0000e+00
       15  1    3    3    0    0 +2.7654910000e+00 +4.3268509000e+01 +1.3214662000e+02 1.3908882000e+02 1.7770000000e+00 0.0000e+00 9.0000e+00
      -15  1    3    3    0    0 -4.3636935000e-01 -1.9548825000e+01 +8.3944402000e+01 8.6210019000e+01 1.7770000000e+00 0.0000e+00 9.0000e+00
       22  1    3    3    0    0 -2.3291217000e+00 -2.3719684000e+01 +1.3659747000e+02 1.3866116000e+02 0.0000000000e+00 0.0000e+00 9.0000e+00
#aMCatNLO 1  0  0  2  1 0.13913844E+02 0.00000000E+00 -9  6  0 0.00000000E+00 0.00000000E+00 0.00000000E+00 0.00000000E+00 0.00000000E+00
<rwgt>
<wgt id='1001'> +1.5146000e+02 </wgt>
<wgt id='1002'> +1.5146000e+02 </wgt>
<wgt id='1003'> +1.3502000e+02 </wgt>
<wgt id='1004'> +1.4650000e+02 </wgt>
<wgt id='1005'> +1.5145000e+02 </wgt>
<wgt id='1006'> +1.5259000e+02 </wgt>
<wgt id='1007'> +1.4887000e+02 </wgt>
<wgt id='1008'> +1.4781000e+02 </wgt>
<wgt id='1009'> +1.5794000e+02 </wgt>
<wgt id='1010'> +1.5203000e+02 </wgt>
<wgt id='1011'> +1.5325000e+02 </wgt>
<wgt id='1012'> +1.5645000e+02 </wgt>
<wgt id='1013'> +1.4150000e+02 </wgt>
<wgt id='1014'> +1.5209000e+02 </wgt>
<wgt id='1015'> +1.5838000e+02 </wgt>
<wgt id='1016'> +1.5172000e+02 </wgt>
<wgt id='1017'> +1.5047000e+02 </wgt>
<wgt id='1018'> +1.5242000e+02 </wgt>
<wgt id='1019'> +1.5043000e+02 </wgt>
<wgt id='1020'> +1.4643000e+02 </wgt>
<wgt id='1021'> +1.5208000e+02 </wgt>
<wgt id='1022'> +1.6007000e+02 </wgt>
<wgt id='1023'> +1.5353000e+02 </wgt>
<wgt id='1024'> +1.5300000e+02 </wgt>
<wgt id='1025'> +1.5764000e+02 </wgt>
<wgt id='1026'> +1.6240000e+02 </wgt>
<wgt id='1027'> +1.5322000e+02 </wgt>
<wgt id='1028'> +1.5420000e+02 </wgt>
<wgt id='1029'> +1.5329000e+02 </wgt>
<wgt id='1030'> +1.5155000e+02 </wgt>
<wgt id='1031'> +1.5172000e+02 </wgt>
<wgt id='1032'> +1.5770000e+02 </wgt>
<wgt id='1033'> +1.6185000e+02 </wgt>
<wgt id='1034'> +1.5049000e+02 </wgt>
<wgt id='1035'> +1.5443000e+02 </wgt>
<wgt id='1036'> +1.5311000e+02 </wgt>
<wgt id='1037'> +1.5897000e+02 </wgt>
<wgt id='1038'> +1.5123000e+02 </wgt>
<wgt id='1039'> +1.5531000e+02 </wgt>
<wgt id='1040'> +1.4881000e+02 </wgt>
<wgt id='1041'> +1.4515000e+02 </wgt>
<wgt id='1042'> +1.5274000e+02 </wgt>
<wgt id='1043'> +1.4299000e+02 </wgt>
<wgt id='1044'> +1.5119000e+02 </wgt>
<wgt id='1045'> +1.5567000e+02 </wgt>
<wgt id='1046'> +1.5022000e+02 </wgt>
<wgt id='1047'> +1.5366000e+02 </wgt>
<wgt id='1048'> +1.4533000e+02 </wgt>
<wgt id='1049'> +1.4734000e+02 </wgt>
<wgt id='1050'> +1.5197000e+02 </wgt>
<wgt id='1051'> +1.5549000e+02 </wgt>
<wgt id='1052'> +1.4980000e+02 </wgt>
<wgt id='1053'> +1.4879000e+02 </wgt>
<wgt id='1054'> +1.5235000e+02 </wgt>
<wgt id='1055'> +1.5984000e+02 </wgt>
<wgt id='1056'> +1.5243000e+02 </wgt>
<wgt id='1057'> +1.5342000e+02 </wgt>
<wgt id='1058'> +1.4592000e+02 </wgt>
<wgt id='1059'> +1.4411000e+02 </wgt>
<wgt id='1060'> +1.4731000e+02 </wgt>
<wgt id='1061'> +1.5804000e+02 </wgt>
<wgt id='1062'> +1.5429000e+02 </wgt>
<wgt id='1063'> +1.5081000e+02 </wgt>
<wgt id='1064'> +1.5035000e+02 </wgt>
<wgt id='1065'> +1.4998000e+02 </wgt>
<wgt id='1066'> +1.4261000e+02 </wgt>
<wgt id='1067'> +1.5330000e+02 </wgt>
<wgt id='1068'> +1.5812000e+02 </wgt>
<wgt id='1069'> +1.5244000e+02 </wgt>
<wgt id='1070'> +1.5498000e+02 </wgt>
<wgt id='1071'> +1.5711000e+02 </wgt>
<wgt id='1072'> +1.5503000e+02 </wgt>
<wgt id='1073'> +1.4988000e+02 </wgt>
<wgt id='1074'> +1.4978000e+02 </wgt>
<wgt id='1075'> +1.3462000e+02 </wgt>
<wgt id='1076'> +1.5462000e+02 </wgt>
<wgt id='1077'> +1.4670000e+02 </wgt>
<wgt id='1078'> +1.4775000e+02 </wgt>
<wgt id='1079'> +1.5316000e+02 </wgt>
<wgt id='1080'> +1.5093000e+02 </wgt>
<wgt id='1081'> +1.4716000e+02 </wgt>
<wgt id='1082'> +1.5551000e+02 </wgt>
<wgt id='1083'> +1.5219000e+02 </wgt>
<wgt id='1084'> +1.5542000e+02 </wgt>
<wgt id='1085'> +1.4716000e+02 </wgt>
<wgt id='1086'> +1.5141000e+02 </wgt>
<wgt id='1087'> +1.5019000e+02 </wgt>
<wgt id='1088'> +1.4739000e+02 </wgt>
<wgt id='1089'> +1.4786000e+02 </wgt>
<wgt id='1090'> +1.4734000e+02 </wgt>
<wgt id='1091'> +1.4486000e+02 </wgt>
<wgt id='1092'> +1.5618000e+02 </wgt>
<wgt id='1093'> +1.5098000e+02 </wgt>
<wgt id='1094'> +1.5757000e+02 </wgt>
<wgt id='1095'> +1.4992000e+02 </wgt>
<wgt id='1096'> +1.4749000e+02 </wgt>
<wgt id='1097'> +1.4993000e+02 </wgt>
<wgt id='1098'> +1.5283000e+02 </wgt>
<wgt id='1099'> +1.5367000e+02 </wgt>
<wgt id='1100'> +1.5441000e+02 </wgt>
<wgt id='1101'> +1.4851000e+02 </wgt>
<wgt id='1102'> +1.4938000e+02 </wgt>
<wgt id='1103'> +1.5087000e+02 </wgt>
<wgt id='1104'> +1.5149000e+02 </wgt>
<wgt id='1105'> +1.5146096e+02 </wgt>
<wgt id='1106'> +7.4144194e+01 </wgt>
<wgt id='1107'> +7.7694548e+01 </wgt>
<wgt id='1108'> +8.2467370e+01 </wgt>
<wgt id='1109'> +8.0805962e+01 </wgt>
<wgt id='1110'> +8.4524376e+01 </wgt>
<wgt id='1111'> +6.7857610e+01 </wgt>
<wgt id='1112'> +6.6392380e+01 </wgt>
<wgt id='1113'> +6.9671844e+01 </wgt>
<wgt id='1114'> +7.9096069e+01 </wgt>
<wgt id='1115'> +8.9660076e+01 </wgt>
<wgt id='1116'> +7.9101884e+01 </wgt>
<wgt id='1117'> +8.3627203e+01 </wgt>
<wgt id='1118'> +8.1478040e+01 </wgt>
<wgt id='1119'> +7.7176309e+01 </wgt>
<wgt id='1120'> +7.8364810e+01 </wgt>
<wgt id='1121'> +7.6125982e+01 </wgt>
<wgt id='1122'> +7.7561818e+01 </wgt>
<wgt id='1123'> +7.8155861e+01 </wgt>
<wgt id='1124'> +7.6651983e+01 </wgt>
<wgt id='1125'> +8.0695774e+01 </wgt>
<wgt id='1126'> +7.6755858e+01 </wgt>
<wgt id='1127'> +7.6920353e+01 </wgt>
<wgt id='1128'> +8.0824095e+01 </wgt>
<wgt id='1129'> +7.7052773e+01 </wgt>
<wgt id='1130'> +7.5856676e+01 </wgt>
<wgt id='1131'> +8.2167857e+01 </wgt>
<wgt id='1132'> +7.9066306e+01 </wgt>
<wgt id='1133'> +7.9333909e+01 </wgt>
<wgt id='1134'> +7.3496943e+01 </wgt>
<wgt id='1135'> +7.9876509e+01 </wgt>
<wgt id='1136'> +8.4096316e+01 </wgt>
<wgt id='1137'> +7.9381395e+01 </wgt>
<wgt id='1138'> +7.8113779e+01 </wgt>
<wgt id='1139'> +7.6506028e+01 </wgt>
<wgt id='1140'> +7.9311877e+01 </wgt>
<wgt id='1141'> +8.9364682e+01 </wgt>
<wgt id='1142'> +7.9563952e+01 </wgt>
<wgt id='1143'> +7.6753248e+01 </wgt>
<wgt id='1144'> +7.9505487e+01 </wgt>
<wgt id='1145'> +8.3923172e+01 </wgt>
<wgt id='1146'> +7.7227167e+01 </wgt>
<wgt id='1147'> +8.0317116e+01 </wgt>
<wgt id='1148'> +7.9874491e+01 </wgt>
<wgt id='1149'> +8.0683782e+01 </wgt>
<wgt id='1150'> +8.1185903e+01 </wgt>
<wgt id='1151'> +7.9509603e+01 </wgt>
<wgt id='1152'> +7.6700082e+01 </wgt>
<wgt id='1153'> +7.9030135e+01 </wgt>
<wgt id='1154'> +7.7631426e+01 </wgt>
<wgt id='1155'> +8.0719861e+01 </wgt>
<wgt id='1156'> +7.9372293e+01 </wgt>
<wgt id='1157'> +8.4564261e+01 </wgt>
<wgt id='1158'> +8.0416488e+01 </wgt>
<wgt id='1159'> +7.5085569e+01 </wgt>
<wgt id='1160'> +8.0463169e+01 </wgt>
<wgt id='1161'> +7.9559274e+01 </wgt>
<wgt id='1162'> +7.9190532e+01 </wgt>
<wgt id='1163'> +7.8975154e+01 </wgt>
<wgt id='1164'> +7.9127307e+01 </wgt>
<wgt id='1165'> +7.8916428e+01 </wgt>
<wgt id='1166'> +7.5209256e+01 </wgt>
<wgt id='1167'> +7.8804156e+01 </wgt>
<wgt id='1168'> +8.0554004e+01 </wgt>
<wgt id='1169'> +8.4417383e+01 </wgt>
<wgt id='1170'> +8.0566038e+01 </wgt>
<wgt id='1171'> +8.2774603e+01 </wgt>
<wgt id='1172'> +8.0684260e+01 </wgt>
<wgt id='1173'> +7.7622344e+01 </wgt>
<wgt id='1174'> +8.1188393e+01 </wgt>
<wgt id='1175'> +8.1299430e+01 </wgt>
<wgt id='1176'> +7.7586441e+01 </wgt>
<wgt id='1177'> +8.1653513e+01 </wgt>
<wgt id='1178'> +7.6236838e+01 </wgt>
<wgt id='1179'> +7.8249565e+01 </wgt>
<wgt id='1180'> +7.4963647e+01 </wgt>
<wgt id='1181'> +8.0445527e+01 </wgt>
<wgt id='1182'> +7.8919921e+01 </wgt>
<wgt id='1183'> +7.8812098e+01 </wgt>
<wgt id='1184'> +7.9249323e+01 </wgt>
<wgt id='1185'> +7.8740719e+01 </wgt>
<wgt id='1186'> +7.2977481e+01 </wgt>
<wgt id='1187'> +7.0157323e+01 </wgt>
<wgt id='1188'> +7.4045353e+01 </wgt>
<wgt id='1189'> +7.5923629e+01 </wgt>
<wgt id='1190'> +8.2505058e+01 </wgt>
<wgt id='1191'> +7.9340388e+01 </wgt>
<wgt id='1192'> +7.7442003e+01 </wgt>
<wgt id='1193'> +7.5843374e+01 </wgt>
<wgt id='1194'> +8.3428429e+01 </wgt>
<wgt id='1195'> +8.2763227e+01 </wgt>
<wgt id='1196'> +7.5856676e+01 </wgt>
<wgt id='1197'> +7.6603220e+01 </wgt>
<wgt id='1198'> +7.8608088e+01 </wgt>
<wgt id='1199'> +7.8484136e+01 </wgt>
<wgt id='1200'> +8.5235225e+01 </wgt>
<wgt id='1201'> +7.8956741e+01 </wgt>
<wgt id='1202'> +8.4651429e+01 </wgt>
<wgt id='1203'> +7.0282610e+01 </wgt>
<wgt id='1204'> +7.7360957e+01 </wgt>
<wgt id='1205'> +7.8995831e+01 </wgt>
<wgt id='1206'> +7.0975013e+01 </wgt>
<wgt id='1207'> +7.6759657e+01 </wgt>
<wgt id='1208'> +7.6739314e+01 </wgt>
<wgt id='1209'> +8.0561207e+01 </wgt>
<wgt id='1210'> +7.9027987e+01 </wgt>
<wgt id='1211'> +8.3094357e+01 </wgt>
<wgt id='1212'> +8.1150707e+01 </wgt>
<wgt id='1213'> +8.0396325e+01 </wgt>
<wgt id='1214'> +7.9290432e+01 </wgt>
<wgt id='1215'> +7.5978985e+01 </wgt>
<wgt id='1216'> +8.1132918e+01 </wgt>
<wgt id='1217'> +8.1108637e+01 </wgt>
<wgt id='1218'> +8.1141966e+01 </wgt>
<wgt id='1219'> +8.0898915e+01 </wgt>
<wgt id='1220'> +8.1777190e+01 </wgt>
<wgt id='1221'> +8.0837280e+01 </wgt>
<wgt id='1222'> +8.0950653e+01 </wgt>
<wgt id='1223'> +8.0852498e+01 </wgt>
<wgt id='1224'> +8.0965688e+01 </wgt>
<wgt id='1225'> +8.0937513e+01 </wgt>
<wgt id='1226'> +8.0541535e+01 </wgt>
<wgt id='1227'> +8.1171932e+01 </wgt>
<wgt id='1228'> +8.1309759e+01 </wgt>
<wgt id='1229'> +8.1278008e+01 </wgt>
<wgt id='1230'> +8.1460823e+01 </wgt>
<wgt id='1231'> +8.0700425e+01 </wgt>
<wgt id='1232'> +8.1231733e+01 </wgt>
<wgt id='1233'> +8.0950110e+01 </wgt>
<wgt id='1234'> +8.1282122e+01 </wgt>
<wgt id='1235'> +8.1247232e+01 </wgt>
<wgt id='1236'> +8.1171430e+01 </wgt>
<wgt id='1237'> +8.1346380e+01 </wgt>
<wgt id='1238'> +8.1135915e+01 </wgt>
<wgt id='1239'> +8.1280627e+01 </wgt>
<wgt id='1240'> +8.1260242e+01 </wgt>
<wgt id='1241'> +8.1006471e+01 </wgt>
<wgt id='1242'> +8.0958293e+01 </wgt>
<wgt id='1243'> +8.1617532e+01 </wgt>
<wgt id='1244'> +8.1278704e+01 </wgt>
<wgt id='1245'> +8.1256935e+01 </wgt>
<wgt id='1246'> +8.0937941e+01 </wgt>
<wgt id='1247'> +8.1751068e+01 </wgt>
<wgt id='1248'> +8.0392209e+01 </wgt>
<wgt id='1249'> +8.1236800e+01 </wgt>
<wgt id='1250'> +8.1144774e+01 </wgt>
<wgt id='1251'> +8.0517851e+01 </wgt>
<wgt id='1252'> +8.0411619e+01 </wgt>
<wgt id='1253'> +8.0905516e+01 </wgt>
<wgt id='1254'> +8.0677249e+01 </wgt>
<wgt id='1255'> +8.0888746e+01 </wgt>
<wgt id='1256'> +8.0888629e+01 </wgt>
<wgt id='1257'> +8.0682967e+01 </wgt>
<wgt id='1258'> +8.0887336e+01 </wgt>
<wgt id='1259'> +8.1502823e+01 </wgt>
<wgt id='1260'> +8.0674833e+01 </wgt>
<wgt id='1261'> +8.0886359e+01 </wgt>
<wgt id='1262'> +8.0910126e+01 </wgt>
<wgt id='1263'> +8.1314047e+01 </wgt>
<wgt id='1264'> +8.1125655e+01 </wgt>
<wgt id='1265'> +8.0956213e+01 </wgt>
<wgt id='1266'> +8.1576442e+01 </wgt>
<wgt id='1267'> +8.1704824e+01 </wgt>
<wgt id='1268'> +8.1195449e+01 </wgt>
<wgt id='1269'> +8.1088640e+01 </wgt>
<wgt id='1270'> +8.1276644e+01 </wgt>
<wgt id='1271'> +8.0997751e+01 </wgt>
<wgt id='1272'> +8.1036947e+01 </wgt>
<wgt id='1273'> +8.0773872e+01 </wgt>
<wgt id='1274'> +8.0855419e+01 </wgt>
<wgt id='1275'> +8.1446583e+01 </wgt>
<wgt id='1276'> +8.1471132e+01 </wgt>
<wgt id='1277'> +8.1129761e+01 </wgt>
<wgt id='1278'> +8.1091157e+01 </wgt>
<wgt id='1279'> +8.1453000e+01 </wgt>
<wgt id='1280'> +8.1130123e+01 </wgt>
<wgt id='1281'> +8.1006012e+01 </wgt>
<wgt id='1282'> +8.1298102e+01 </wgt>
<wgt id='1283'> +8.1188619e+01 </wgt>
<wgt id='1284'> +8.1135894e+01 </wgt>
<wgt id='1285'> +8.1040349e+01 </wgt>
<wgt id='1286'> +8.0855336e+01 </wgt>
<wgt id='1287'> +8.1091506e+01 </wgt>
<wgt id='1288'> +8.1150818e+01 </wgt>
<wgt id='1289'> +8.0876194e+01 </wgt>
<wgt id='1290'> +8.1069428e+01 </wgt>
<wgt id='1291'> +8.0974283e+01 </wgt>
<wgt id='1292'> +8.0989245e+01 </wgt>
<wgt id='1293'> +8.1252781e+01 </wgt>
<wgt id='1294'> +8.1219493e+01 </wgt>
<wgt id='1295'> +8.1088495e+01 </wgt>
<wgt id='1296'> +8.1104390e+01 </wgt>
<wgt id='1297'> +8.1247670e+01 </wgt>
<wgt id='1298'> +8.1114314e+01 </wgt>
<wgt id='1299'> +8.1294681e+01 </wgt>
<wgt id='1300'> +8.0977163e+01 </wgt>
<wgt id='1301'> +8.1101297e+01 </wgt>
<wgt id='1302'> +8.1133330e+01 </wgt>
<wgt id='1303'> +8.1189533e+01 </wgt>
<wgt id='1304'> +8.1004532e+01 </wgt>
<wgt id='1305'> +8.0863686e+01 </wgt>
<wgt id='1306'> +8.1191788e+01 </wgt>
<wgt id='1307'> +8.1200386e+01 </wgt>
<wgt id='1308'> +8.0932156e+01 </wgt>
<wgt id='1309'> +8.1234544e+01 </wgt>
<wgt id='1310'> +8.1212685e+01 </wgt>
<wgt id='1311'> +8.1226863e+01 </wgt>
<wgt id='1312'> +8.1038803e+01 </wgt>
<wgt id='1313'> +8.1150857e+01 </wgt>
<wgt id='1314'> +8.1212691e+01 </wgt>
<wgt id='1315'> +8.1312261e+01 </wgt>
<wgt id='1316'> +8.0964273e+01 </wgt>
<wgt id='1317'> +8.1727305e+01 </wgt>
<wgt id='1318'> +8.1072296e+01 </wgt>
<wgt id='1319'> +1.0387481e+02 </wgt>
<wgt id='1320'> +7.6779331e+01 </wgt>
<wgt id='1321'> +7.7283266e+01 </wgt>
<wgt id='1322'> +7.7213251e+01 </wgt>
<wgt id='1323'> +7.6085175e+01 </wgt>
<wgt id='1324'> +7.7542660e+01 </wgt>
<wgt id='1325'> +7.8430752e+01 </wgt>
<wgt id='1326'> +7.6057709e+01 </wgt>
<wgt id='1327'> +7.7508018e+01 </wgt>
<wgt id='1328'> +7.6353667e+01 </wgt>
<wgt id='1329'> +7.6029892e+01 </wgt>
<wgt id='1330'> +7.7233734e+01 </wgt>
<wgt id='1331'> +7.3995939e+01 </wgt>
<wgt id='1332'> +7.8999498e+01 </wgt>
<wgt id='1333'> +7.5857932e+01 </wgt>
<wgt id='1334'> +7.6457591e+01 </wgt>
<wgt id='1335'> +7.9303227e+01 </wgt>
<wgt id='1336'> +7.3620374e+01 </wgt>
<wgt id='1337'> +7.8983753e+01 </wgt>
<wgt id='1338'> +7.4241811e+01 </wgt>
<wgt id='1339'> +7.7017928e+01 </wgt>
<wgt id='1340'> +7.6415170e+01 </wgt>
<wgt id='1341'> +7.7057067e+01 </wgt>
<wgt id='1342'> +7.6064386e+01 </wgt>
<wgt id='1343'> +7.6281058e+01 </wgt>
<wgt id='1344'> +7.7078057e+01 </wgt>
<wgt id='1345'> +7.4858684e+01 </wgt>
<wgt id='1346'> +7.8491875e+01 </wgt>
<wgt id='1347'> +7.6073804e+01 </wgt>
<wgt id='1348'> +7.7654599e+01 </wgt>
<wgt id='1349'> +7.4744070e+01 </wgt>
<wgt id='1350'> +7.7480169e+01 </wgt>
<wgt id='1351'> +7.6055150e+01 </wgt>
<wgt id='1352'> +7.7699589e+01 </wgt>
<wgt id='1353'> +7.6931928e+01 </wgt>
<wgt id='1354'> +7.6417480e+01 </wgt>
<wgt id='1355'> +7.6912660e+01 </wgt>
<wgt id='1356'> +7.6778469e+01 </wgt>
<wgt id='1357'> +7.6149808e+01 </wgt>
<wgt id='1358'> +7.7068060e+01 </wgt>
<wgt id='1359'> +7.5001619e+01 </wgt>
<wgt id='1360'> +7.7370325e+01 </wgt>
<wgt id='1361'> +7.6123798e+01 </wgt>
<wgt id='1362'> +7.7715220e+01 </wgt>
<wgt id='1363'> +7.6785586e+01 </wgt>
<wgt id='1364'> +7.6283196e+01 </wgt>
<wgt id='1365'> +7.6604552e+01 </wgt>
<wgt id='1366'> +7.5535213e+01 </wgt>
<wgt id='1367'> +7.4830290e+01 </wgt>
<wgt id='1368'> +7.6962331e+01 </wgt>
<wgt id='1369'> +7.5617190e+01 </wgt>
<wgt id='1370'> +7.7302222e+01 </wgt>
<wgt id='1371'> +7.5596927e+01 </wgt>
<wgt id='1372'> +7.5013767e+01 </wgt>
<wgt id='1373'> +7.6172115e+01 </wgt>
<wgt id='1374'> +7.5665464e+01 </wgt>
<wgt id='1375'> +7.6146235e+01 </wgt>
<wgt id='1376'> +7.8461428e+01 </wgt>
<wgt id='1377'> +7.6225212e+01 </wgt>
<wgt id='1378'> +7.7279208e+01 </wgt>
<wgt id='1379'> +7.6106902e+01 </wgt>
<wgt id='1380'> +7.5663140e+01 </wgt>
<wgt id='1381'> +7.6619163e+01 </wgt>
<wgt id='1382'> +7.8782835e+01 </wgt>
<wgt id='1383'> +7.7415170e+01 </wgt>
<wgt id='1384'> +7.8351635e+01 </wgt>
<wgt id='1385'> +8.2441144e+01 </wgt>
<wgt id='1386'> +8.2814071e+01 </wgt>
<wgt id='1387'> +8.2033858e+01 </wgt>
<wgt id='1388'> +8.2621843e+01 </wgt>
<wgt id='1389'> +8.2122511e+01 </wgt>
<wgt id='1390'> +8.2880503e+01 </wgt>
<wgt id='1391'> +8.1931741e+01 </wgt>
<wgt id='1392'> +8.2857856e+01 </wgt>
<wgt id='1393'> +8.2153820e+01 </wgt>
<wgt id='1394'> +8.2306844e+01 </wgt>
<wgt id='1395'> +8.2611414e+01 </wgt>
<wgt id='1396'> +8.1724606e+01 </wgt>
<wgt id='1397'> +8.2812655e+01 </wgt>
<wgt id='1398'> +8.2061283e+01 </wgt>
<wgt id='1399'> +8.2729195e+01 </wgt>
<wgt id='1400'> +8.3159939e+01 </wgt>
<wgt id='1401'> +8.1890578e+01 </wgt>
<wgt id='1402'> +8.2981379e+01 </wgt>
<wgt id='1403'> +8.2197285e+01 </wgt>
<wgt id='1404'> +8.3697596e+01 </wgt>
<wgt id='1405'> +8.1821299e+01 </wgt>
<wgt id='1406'> +8.2450607e+01 </wgt>
<wgt id='1407'> +8.2414195e+01 </wgt>
<wgt id='1408'> +8.1750085e+01 </wgt>
<wgt id='1409'> +8.3840899e+01 </wgt>
<wgt id='1410'> +8.2864127e+01 </wgt>
<wgt id='1411'> +8.1340253e+01 </wgt>
<wgt id='1412'> +8.2636601e+01 </wgt>
<wgt id='1413'> +8.2024268e+01 </wgt>
<wgt id='1414'> +8.2184838e+01 </wgt>
<wgt id='1415'> +8.2650324e+01 </wgt>
<wgt id='1416'> +8.2431217e+01 </wgt>
<wgt id='1417'> +8.2713989e+01 </wgt>
<wgt id='1418'> +8.2578812e+01 </wgt>
<wgt id='1419'> +8.2150347e+01 </wgt>
<wgt id='1420'> +8.2196840e+01 </wgt>
<wgt id='1421'> +8.2293192e+01 </wgt>
<wgt id='1422'> +8.2257108e+01 </wgt>
<wgt id='1423'> +8.2744554e+01 </wgt>
<wgt id='1424'> +8.2955535e+01 </wgt>
<wgt id='1425'> +8.1380398e+01 </wgt>
<wgt id='1426'> +8.3383500e+01 </wgt>
<wgt id='1427'> +8.2201665e+01 </wgt>
<wgt id='1428'> +8.1646442e+01 </wgt>
<wgt id='1429'> +8.1649840e+01 </wgt>
<wgt id='1430'> +8.3242212e+01 </wgt>
<wgt id='1431'> +8.2616696e+01 </wgt>
<wgt id='1432'> +8.2879493e+01 </wgt>
<wgt id='1433'> +8.3116384e+01 </wgt>
<wgt id='1434'> +8.3172932e+01 </wgt>
<wgt id='1435'> +8.3314064e+01 </wgt>
<wgt id='1436'> +8.0279475e+01 </wgt>
<wgt id='1437'> +8.0419598e+01 </wgt>
<wgt id='1438'> +7.9919232e+01 </wgt>
<wgt id='1439'> +8.0282793e+01 </wgt>
<wgt id='1440'> +8.0217679e+01 </wgt>
<wgt id='1441'> +8.0679247e+01 </wgt>
<wgt id='1442'> +8.0242109e+01 </wgt>
<wgt id='1443'> +8.0643789e+01 </wgt>
<wgt id='1444'> +8.0114307e+01 </wgt>
<wgt id='1445'> +8.0109072e+01 </wgt>
<wgt id='1446'> +8.0452282e+01 </wgt>
<wgt id='1447'> +8.0384651e+01 </wgt>
<wgt id='1448'> +8.0140124e+01 </wgt>
<wgt id='1449'> +8.0860306e+01 </wgt>
<wgt id='1450'> +8.0330354e+01 </wgt>
<wgt id='1451'> +8.0266969e+01 </wgt>
<wgt id='1452'> +8.0269310e+01 </wgt>
<wgt id='1453'> +8.0256724e+01 </wgt>
<wgt id='1454'> +8.0331036e+01 </wgt>
<wgt id='1455'> +8.0391539e+01 </wgt>
<wgt id='1456'> +8.0488016e+01 </wgt>
<wgt id='1457'> +8.0303502e+01 </wgt>
<wgt id='1458'> +7.9935854e+01 </wgt>
<wgt id='1459'> +8.0697229e+01 </wgt>
<wgt id='1460'> +8.0418083e+01 </wgt>
<wgt id='1461'> +7.9593981e+01 </wgt>
<wgt id='1462'> +8.0885495e+01 </wgt>
<wgt id='1463'> +7.9022937e+01 </wgt>
<wgt id='1464'> +8.0407223e+01 </wgt>
<wgt id='1465'> +7.6894164e+01 </wgt>
<wgt id='1466'> +7.6645462e+01 </wgt>
<wgt id='1467'> +7.6705599e+01 </wgt>
<wgt id='1468'> +7.6187000e+01 </wgt>
<wgt id='1469'> +7.7618809e+01 </wgt>
<wgt id='1470'> +7.6570257e+01 </wgt>
<wgt id='1471'> +7.6728555e+01 </wgt>
<wgt id='1472'> +7.6074643e+01 </wgt>
<wgt id='1473'> +7.7359893e+01 </wgt>
<wgt id='1474'> +7.7243819e+01 </wgt>
<wgt id='1475'> +7.6482673e+01 </wgt>
<wgt id='1476'> +7.7126139e+01 </wgt>
<wgt id='1477'> +7.5968616e+01 </wgt>
<wgt id='1478'> +7.6699201e+01 </wgt>
<wgt id='1479'> +7.6214245e+01 </wgt>
<wgt id='1480'> +7.6554030e+01 </wgt>
<wgt id='1481'> +7.6614689e+01 </wgt>
<wgt id='1482'> +7.6091934e+01 </wgt>
<wgt id='1483'> +7.7249371e+01 </wgt>
<wgt id='1484'> +7.7358726e+01 </wgt>
<wgt id='1485'> +7.6250994e+01 </wgt>
<wgt id='1486'> +7.6857743e+01 </wgt>
<wgt id='1487'> +7.6553636e+01 </wgt>
<wgt id='1488'> +7.6700153e+01 </wgt>
<wgt id='1489'> +7.7196375e+01 </wgt>
<wgt id='1490'> +7.6461687e+01 </wgt>
<wgt id='1491'> +7.5791733e+01 </wgt>
<wgt id='1492'> +7.6307161e+01 </wgt>
<wgt id='1493'> +7.7409496e+01 </wgt>
<wgt id='1494'> +7.5931721e+01 </wgt>
<wgt id='1495'> +7.6671629e+01 </wgt>
<wgt id='1496'> +7.7494490e+01 </wgt>
<wgt id='1497'> +7.6392593e+01 </wgt>
<wgt id='1498'> +7.6998944e+01 </wgt>
<wgt id='1499'> +7.7226904e+01 </wgt>
<wgt id='1500'> +7.6849210e+01 </wgt>
<wgt id='1501'> +7.7061169e+01 </wgt>
<wgt id='1502'> +7.6510858e+01 </wgt>
<wgt id='1503'> +7.6809547e+01 </wgt>
<wgt id='1504'> +7.6703525e+01 </wgt>
<wgt id='1505'> +7.6857958e+01 </wgt>
<wgt id='1506'> +7.6773260e+01 </wgt>
<wgt id='1507'> +7.6780562e+01 </wgt>
<wgt id='1508'> +7.6993907e+01 </wgt>
<wgt id='1509'> +7.6496564e+01 </wgt>
<wgt id='1510'> +7.6644751e+01 </wgt>
<wgt id='1511'> +7.6970243e+01 </wgt>
<wgt id='1512'> +7.6723361e+01 </wgt>
<wgt id='1513'> +7.6434308e+01 </wgt>
<wgt id='1514'> +7.6509374e+01 </wgt>
<wgt id='1515'> +7.6549080e+01 </wgt>
<wgt id='1516'> +7.6638713e+01 </wgt>
<wgt id='1517'> +7.6670472e+01 </wgt>
<wgt id='1518'> +7.6960528e+01 </wgt>
<wgt id='1519'> +7.6531980e+01 </wgt>
<wgt id='1520'> +7.6737602e+01 </wgt>
<wgt id='1521'> +7.6666170e+01 </wgt>
<wgt id='1522'> +7.6650389e+01 </wgt>
<wgt id='1523'> +7.6598065e+01 </wgt>
<wgt id='1524'> +7.6641465e+01 </wgt>
<wgt id='1525'> +7.6161681e+01 </wgt>
<wgt id='1526'> +7.6546949e+01 </wgt>
<wgt id='1527'> +7.6968450e+01 </wgt>
<wgt id='1528'> +7.6210296e+01 </wgt>
<wgt id='1529'> +7.6324419e+01 </wgt>
<wgt id='1530'> +7.6690850e+01 </wgt>
<wgt id='1531'> +7.6625549e+01 </wgt>
<wgt id='1532'> +7.6391287e+01 </wgt>
<wgt id='1533'> +7.6724636e+01 </wgt>
<wgt id='1534'> +7.6787580e+01 </wgt>
<wgt id='1535'> +7.6725248e+01 </wgt>
<wgt id='1536'> +7.6389270e+01 </wgt>
<wgt id='1537'> +7.6746941e+01 </wgt>
<wgt id='1538'> +7.6833689e+01 </wgt>
<wgt id='1539'> +7.6719339e+01 </wgt>
<wgt id='1540'> +7.6642261e+01 </wgt>
<wgt id='1541'> +7.6585831e+01 </wgt>
<wgt id='1542'> +7.6734254e+01 </wgt>
<wgt id='1543'> +7.6611137e+01 </wgt>
<wgt id='1544'> +7.6618190e+01 </wgt>
<wgt id='1545'> +7.6879513e+01 </wgt>
<wgt id='1546'> +7.6842455e+01 </wgt>
<wgt id='1547'> +7.6614715e+01 </wgt>
<wgt id='1548'> +7.6555459e+01 </wgt>
<wgt id='1549'> +7.6549637e+01 </wgt>
<wgt id='1550'> +7.6605625e+01 </wgt>
<wgt id='1551'> +7.6658467e+01 </wgt>
<wgt id='1552'> +7.6696363e+01 </wgt>
<wgt id='1553'> +7.6651248e+01 </wgt>
<wgt id='1554'> +7.6592570e+01 </wgt>
<wgt id='1555'> +7.6625552e+01 </wgt>
<wgt id='1556'> +7.6646297e+01 </wgt>
<wgt id='1557'> +7.6623523e+01 </wgt>
<wgt id='1558'> +7.6630151e+01 </wgt>
<wgt id='1559'> +7.6578442e+01 </wgt>
<wgt id='1560'> +7.6589561e+01 </wgt>
<wgt id='1561'> +7.6590953e+01 </wgt>
<wgt id='1562'> +7.6663793e+01 </wgt>
<wgt id='1563'> +7.6663187e+01 </wgt>
<wgt id='1564'> +7.6674521e+01 </wgt>
<wgt id='1565'> +7.6722190e+01 </wgt>
<wgt id='1566'> +7.6664425e+01 </wgt>
<wgt id='1567'> +7.6118276e+01 </wgt>
<wgt id='1568'> +7.6962448e+01 </wgt>
<wgt id='1569'> +7.6880672e+01 </wgt>
<wgt id='1570'> +7.7202315e+01 </wgt>
<wgt id='1571'> +7.6667239e+01 </wgt>
<wgt id='1572'> +7.7309253e+01 </wgt>
<wgt id='1573'> +7.7578808e+01 </wgt>
<wgt id='1574'> +7.7256657e+01 </wgt>
<wgt id='1575'> +7.7177297e+01 </wgt>
<wgt id='1576'> +7.7239651e+01 </wgt>
<wgt id='1577'> +7.7113727e+01 </wgt>
<wgt id='1578'> +7.6987665e+01 </wgt>
<wgt id='1579'> +7.6661880e+01 </wgt>
<wgt id='1580'> +7.7417744e+01 </wgt>
<wgt id='1581'> +7.6577797e+01 </wgt>
<wgt id='1582'> +7.6903937e+01 </wgt>
<wgt id='1583'> +7.6714704e+01 </wgt>
<wgt id='1584'> +7.7805544e+01 </wgt>
<wgt id='1585'> +7.6417201e+01 </wgt>
<wgt id='1586'> +7.6899118e+01 </wgt>
<wgt id='1587'> +7.7597708e+01 </wgt>
<wgt id='1588'> +7.5754635e+01 </wgt>
<wgt id='1589'> +7.6478182e+01 </wgt>
<wgt id='1590'> +7.7171570e+01 </wgt>
<wgt id='1591'> +7.6053552e+01 </wgt>
<wgt id='1592'> +7.6767562e+01 </wgt>
<wgt id='1593'> +7.7268455e+01 </wgt>
<wgt id='1594'> +7.6967863e+01 </wgt>
<wgt id='1595'> +7.6657309e+01 </wgt>
<wgt id='1596'> +7.6778154e+01 </wgt>
<wgt id='1597'> +7.6830096e+01 </wgt>
<wgt id='1598'> +7.6697144e+01 </wgt>
<wgt id='1599'> +7.6907016e+01 </wgt>
<wgt id='1600'> +7.6092870e+01 </wgt>
<wgt id='1601'> +7.6820545e+01 </wgt>
<wgt id='1602'> +7.6005003e+01 </wgt>
<wgt id='1603'> +7.6398309e+01 </wgt>
<wgt id='1604'> +7.7230699e+01 </wgt>
<wgt id='1605'> +7.7141509e+01 </wgt>
<wgt id='1606'> +7.6841429e+01 </wgt>
<wgt id='1607'> +7.6866095e+01 </wgt>
<wgt id='1608'> +7.7206445e+01 </wgt>
<wgt id='1609'> +7.6578588e+01 </wgt>
<wgt id='1610'> +7.6743570e+01 </wgt>
<wgt id='1611'> +7.6580489e+01 </wgt>
<wgt id='1612'> +7.6829500e+01 </wgt>
<wgt id='1613'> +7.6751180e+01 </wgt>
<wgt id='1614'> +7.7054200e+01 </wgt>
<wgt id='1615'> +7.6658435e+01 </wgt>
<wgt id='1616'> +7.6233838e+01 </wgt>
<wgt id='1617'> +7.6693961e+01 </wgt>
<wgt id='1618'> +7.6923515e+01 </wgt>
<wgt id='1619'> +7.6906586e+01 </wgt>
<wgt id='1620'> +7.6807894e+01 </wgt>
<wgt id='1621'> +7.6866669e+01 </wgt>
<wgt id='1622'> +7.7056801e+01 </wgt>
<wgt id='1623'> +7.6786023e+01 </wgt>
<wgt id='1624'> +7.7008077e+01 </wgt>
<wgt id='1625'> +7.7174244e+01 </wgt>
<wgt id='1626'> +7.6668324e+01 </wgt>
<wgt id='1627'> +7.6820525e+01 </wgt>
<wgt id='1628'> +7.6754974e+01 </wgt>
<wgt id='1629'> +7.7020807e+01 </wgt>
<wgt id='1630'> +7.6738625e+01 </wgt>
<wgt id='1631'> +7.6846394e+01 </wgt>
<wgt id='1632'> +7.6960226e+01 </wgt>
<wgt id='1633'> +7.6552031e+01 </wgt>
<wgt id='1634'> +7.7534376e+01 </wgt>
<wgt id='1635'> +7.6580181e+01 </wgt>
<wgt id='1636'> +7.7018251e+01 </wgt>
<wgt id='1637'> +7.7192382e+01 </wgt>
<wgt id='1638'> +7.6924624e+01 </wgt>
<wgt id='1639'> +7.6869464e+01 </wgt>
<wgt id='1640'> +7.6949495e+01 </wgt>
<wgt id='1641'> +7.7102750e+01 </wgt>
<wgt id='1642'> +7.6818032e+01 </wgt>
<wgt id='1643'> +7.6925198e+01 </wgt>
<wgt id='1644'> +7.6828921e+01 </wgt>
<wgt id='1645'> +7.6821854e+01 </wgt>
<wgt id='1646'> +7.6903915e+01 </wgt>
<wgt id='1647'> +7.6730998e+01 </wgt>
<wgt id='1648'> +7.6668454e+01 </wgt>
<wgt id='1649'> +7.7031279e+01 </wgt>
<wgt id='1650'> +7.6915795e+01 </wgt>
<wgt id='1651'> +7.6906637e+01 </wgt>
<wgt id='1652'> +7.6870308e+01 </wgt>
<wgt id='1653'> +7.6822640e+01 </wgt>
<wgt id='1654'> +7.6835601e+01 </wgt>
<wgt id='1655'> +7.6904489e+01 </wgt>
<wgt id='1656'> +7.6801584e+01 </wgt>
<wgt id='1657'> +7.6930121e+01 </wgt>
<wgt id='1658'> +7.6906110e+01 </wgt>
<wgt id='1659'> +7.6871654e+01 </wgt>
<wgt id='1660'> +7.6858739e+01 </wgt>
<wgt id='1661'> +7.6828744e+01 </wgt>
<wgt id='1662'> +7.6908128e+01 </wgt>
<wgt id='1663'> +7.6781794e+01 </wgt>
<wgt id='1664'> +7.6870117e+01 </wgt>
<wgt id='1665'> +7.6928867e+01 </wgt>
<wgt id='1666'> +7.6883128e+01 </wgt>
<wgt id='1667'> +7.6832417e+01 </wgt>
<wgt id='1668'> +7.6846165e+01 </wgt>
<wgt id='1669'> +7.6870043e+01 </wgt>
<wgt id='1670'> +7.6825533e+01 </wgt>
<wgt id='1671'> +7.7106817e+01 </wgt>
<wgt id='1672'> +7.6649615e+01 </wgt>
<wgt id='1673'> +7.7711856e+01 </wgt>
<wgt id='1674'> +7.5488251e+01 </wgt>
<wgt id='1675'> +7.6622392e+01 </wgt>
<wgt id='1676'> +7.7559506e+01 </wgt>
<wgt id='1677'> +7.6919243e+01 </wgt>
<wgt id='1678'> +7.7409956e+01 </wgt>
<wgt id='1679'> +7.6706522e+01 </wgt>
<wgt id='1680'> +7.6531125e+01 </wgt>
<wgt id='1681'> +7.6963702e+01 </wgt>
<wgt id='1682'> +7.6677899e+01 </wgt>
<wgt id='1683'> +7.6285509e+01 </wgt>
<wgt id='1684'> +7.6128143e+01 </wgt>
<wgt id='1685'> +7.6476726e+01 </wgt>
<wgt id='1686'> +7.6093868e+01 </wgt>
<wgt id='1687'> +7.6456628e+01 </wgt>
<wgt id='1688'> +7.6939482e+01 </wgt>
<wgt id='1689'> +7.5640328e+01 </wgt>
<wgt id='1690'> +7.6423563e+01 </wgt>
<wgt id='1691'> +7.6526738e+01 </wgt>
<wgt id='1692'> +7.7595018e+01 </wgt>
<wgt id='1693'> +7.6629960e+01 </wgt>
<wgt id='1694'> +7.6757969e+01 </wgt>
<wgt id='1695'> +7.6686533e+01 </wgt>
<wgt id='1696'> +7.7102637e+01 </wgt>
<wgt id='1697'> +7.6509385e+01 </wgt>
<wgt id='1698'> +7.6724111e+01 </wgt>
<wgt id='1699'> +7.5064123e+01 </wgt>
<wgt id='1700'> +7.6779674e+01 </wgt>
<wgt id='1701'> +7.6476688e+01 </wgt>
<wgt id='1702'> +7.6653073e+01 </wgt>
<wgt id='1703'> +7.6118276e+01 </wgt>
<wgt id='1704'> +7.6962448e+01 </wgt>
<wgt id='1705'> +7.6884315e+01 </wgt>
<wgt id='1706'> +7.7439142e+01 </wgt>
<wgt id='1707'> +7.8002733e+01 </wgt>
<wgt id='1708'> +7.6939074e+01 </wgt>
<wgt id='1709'> +7.5894403e+01 </wgt>
<wgt id='1710'> +7.6772923e+01 </wgt>
<wgt id='1711'> +7.6881189e+01 </wgt>
<wgt id='1712'> +7.6683601e+01 </wgt>
<wgt id='1713'> +7.7122741e+01 </wgt>
<wgt id='1714'> +7.5874380e+01 </wgt>
<wgt id='1715'> +7.7339648e+01 </wgt>
<wgt id='1716'> +7.8057783e+01 </wgt>
<wgt id='1717'> +7.6982281e+01 </wgt>
<wgt id='1718'> +7.7184938e+01 </wgt>
<wgt id='1719'> +7.6751256e+01 </wgt>
<wgt id='1720'> +7.7491744e+01 </wgt>
<wgt id='1721'> +7.6980776e+01 </wgt>
<wgt id='1722'> +7.6885723e+01 </wgt>
<wgt id='1723'> +7.6894399e+01 </wgt>
<wgt id='1724'> +7.7038399e+01 </wgt>
<wgt id='1725'> +7.6850703e+01 </wgt>
<wgt id='1726'> +7.6500818e+01 </wgt>
<wgt id='1727'> +7.7016846e+01 </wgt>
<wgt id='1728'> +7.6902831e+01 </wgt>
<wgt id='1729'> +7.6561705e+01 </wgt>
<wgt id='1730'> +7.7002374e+01 </wgt>
<wgt id='1731'> +7.5081476e+01 </wgt>
<wgt id='1732'> +7.6930224e+01 </wgt>
<wgt id='1733'> +7.6835508e+01 </wgt>
<wgt id='1734'> +7.6885588e+01 </wgt>
<wgt id='1735'> +7.6893940e+01 </wgt>
<wgt id='1736'> +7.6825533e+01 </wgt>
<wgt id='1737'> +7.7106817e+01 </wgt>
<wgt id='1738'> +9.2209593e+01 </wgt>
<wgt id='1739'> +9.2482823e+01 </wgt>
<wgt id='1740'> +9.1937731e+01 </wgt>
<wgt id='1741'> +9.2042823e+01 </wgt>
<wgt id='1742'> +9.2375174e+01 </wgt>
<wgt id='1743'> +9.2377810e+01 </wgt>
<wgt id='1744'> +9.2041450e+01 </wgt>
<wgt id='1745'> +9.1430473e+01 </wgt>
<wgt id='1746'> +9.2974837e+01 </wgt>
<wgt id='1747'> +9.2795876e+01 </wgt>
<wgt id='1748'> +9.1624134e+01 </wgt>
<wgt id='1749'> +9.2622169e+01 </wgt>
<wgt id='1750'> +9.1760370e+01 </wgt>
<wgt id='1751'> +9.2416948e+01 </wgt>
<wgt id='1752'> +9.1996549e+01 </wgt>
<wgt id='1753'> +9.2189645e+01 </wgt>
<wgt id='1754'> +9.2323273e+01 </wgt>
<wgt id='1755'> +9.2514993e+01 </wgt>
<wgt id='1756'> +9.1780863e+01 </wgt>
<wgt id='1757'> +9.1949971e+01 </wgt>
<wgt id='1758'> +9.2507784e+01 </wgt>
<wgt id='1759'> +9.3912193e+01 </wgt>
<wgt id='1760'> +9.0455081e+01 </wgt>
<wgt id='1761'> +9.1927933e+01 </wgt>
<wgt id='1762'> +9.2118714e+01 </wgt>
<wgt id='1763'> +9.0941936e+01 </wgt>
<wgt id='1764'> +9.3625064e+01 </wgt>
<wgt id='1765'> +9.0455553e+01 </wgt>
<wgt id='1766'> +9.3433427e+01 </wgt>
<wgt id='1767'> +9.2209593e+01 </wgt>
<wgt id='1768'> +9.3019739e+01 </wgt>
<wgt id='1769'> +9.1307017e+01 </wgt>
<wgt id='1770'> +9.3141048e+01 </wgt>
<wgt id='1771'> +9.1585235e+01 </wgt>
<wgt id='1772'> +9.1924739e+01 </wgt>
<wgt id='1773'> +9.1574688e+01 </wgt>
<wgt id='1774'> +9.1886621e+01 </wgt>
<wgt id='1775'> +9.2530794e+01 </wgt>
<wgt id='1776'> +9.0923117e+01 </wgt>
<wgt id='1777'> +9.3532838e+01 </wgt>
<wgt id='1778'> +9.2618061e+01 </wgt>
<wgt id='1779'> +9.3195820e+01 </wgt>
<wgt id='1780'> +9.7920034e+01 </wgt>
<wgt id='1781'> +8.3910832e+01 </wgt>
<wgt id='1782'> +8.4140056e+01 </wgt>
<wgt id='1783'> +8.3720766e+01 </wgt>
<wgt id='1784'> +8.3783390e+01 </wgt>
<wgt id='1785'> +8.4075787e+01 </wgt>
<wgt id='1786'> +8.4043557e+01 </wgt>
<wgt id='1787'> +8.3816520e+01 </wgt>
<wgt id='1788'> +8.3161831e+01 </wgt>
<wgt id='1789'> +8.4679499e+01 </wgt>
<wgt id='1790'> +8.4371619e+01 </wgt>
<wgt id='1791'> +8.3481614e+01 </wgt>
<wgt id='1792'> +8.3968145e+01 </wgt>
<wgt id='1793'> +8.3891911e+01 </wgt>
<wgt id='1794'> +8.3805704e+01 </wgt>
<wgt id='1795'> +8.4059247e+01 </wgt>
<wgt id='1796'> +8.3970700e+01 </wgt>
<wgt id='1797'> +8.4016456e+01 </wgt>
<wgt id='1798'> +8.3324156e+01 </wgt>
<wgt id='1799'> +8.4526029e+01 </wgt>
<wgt id='1800'> +8.4487202e+01 </wgt>
<wgt id='1801'> +8.3372855e+01 </wgt>
<wgt id='1802'> +8.2134203e+01 </wgt>
<wgt id='1803'> +8.5673361e+01 </wgt>
<wgt id='1804'> +8.2280283e+01 </wgt>
<wgt id='1805'> +8.5624964e+01 </wgt>
<wgt id='1806'> +8.3836053e+01 </wgt>
<wgt id='1807'> +8.3698129e+01 </wgt>
<wgt id='1808'> +8.3318684e+01 </wgt>
<wgt id='1809'> +8.3963474e+01 </wgt>
<wgt id='1810'> +8.3910923e+01 </wgt>
<wgt id='1811'> +8.4556260e+01 </wgt>
<wgt id='1812'> +8.3513971e+01 </wgt>
<wgt id='1813'> +8.4830756e+01 </wgt>
<wgt id='1814'> +8.3519101e+01 </wgt>
<wgt id='1815'> +8.0517551e+01 </wgt>
<wgt id='1816'> +8.6365486e+01 </wgt>
<wgt id='1817'> +8.3659704e+01 </wgt>
<wgt id='1818'> +8.4300599e+01 </wgt>
<wgt id='1819'> +8.3004906e+01 </wgt>
<wgt id='1820'> +8.3024089e+01 </wgt>
<wgt id='1821'> +8.4090011e+01 </wgt>
<wgt id='1822'> +8.5625802e+01 </wgt>
<wgt id='1823'> +8.7915845e+01 </wgt>
<wgt id='1824'> +7.5636519e+01 </wgt>
<wgt id='1825'> +7.5597859e+01 </wgt>
<wgt id='1826'> +7.5559169e+01 </wgt>
<wgt id='1827'> +7.5520226e+01 </wgt>
<wgt id='1828'> +7.5481567e+01 </wgt>
<wgt id='1829'> +7.5442972e+01 </wgt>
<wgt id='1830'> +7.5404149e+01 </wgt>
<wgt id='1831'> +7.5365722e+01 </wgt>
<wgt id='1832'> +7.5326891e+01 </wgt>
<wgt id='1833'> +7.5288179e+01 </wgt>
<wgt id='1834'> +7.5249311e+01 </wgt>
<wgt id='1835'> +7.5210979e+01 </wgt>
<wgt id='1836'> +7.5172160e+01 </wgt>
<wgt id='1837'> +7.5133429e+01 </wgt>
<wgt id='1838'> +7.5094778e+01 </wgt>
<wgt id='1839'> +7.5056167e+01 </wgt>
<wgt id='1840'> +7.5017519e+01 </wgt>
<wgt id='1841'> +7.4979057e+01 </wgt>
<wgt id='1842'> +7.4940443e+01 </wgt>
<wgt id='1843'> +7.4901697e+01 </wgt>
<wgt id='1844'> +7.4863288e+01 </wgt>
<wgt id='1845'> +7.4824680e+01 </wgt>
<wgt id='1846'> +7.4785937e+01 </wgt>
<wgt id='1847'> +7.4747466e+01 </wgt>
<wgt id='1848'> +7.4708934e+01 </wgt>
<wgt id='1849'> +7.4670362e+01 </wgt>
<wgt id='1850'> +7.4631725e+01 </wgt>
<wgt id='1851'> +7.4593453e+01 </wgt>
<wgt id='1852'> +7.4554725e+01 </wgt>
<wgt id='1853'> +7.4516311e+01 </wgt>
<wgt id='1854'> +7.4477733e+01 </wgt>
<wgt id='1855'> +7.6282498e+01 </wgt>
<wgt id='1856'> +7.6582026e+01 </wgt>
<wgt id='1857'> +7.6064665e+01 </wgt>
<wgt id='1858'> +7.6711213e+01 </wgt>
<wgt id='1859'> +7.6972837e+01 </wgt>
<wgt id='1860'> +7.6655809e+01 </wgt>
<wgt id='1861'> +7.6592088e+01 </wgt>
<wgt id='1862'> +7.6651493e+01 </wgt>
<wgt id='1863'> +7.6515321e+01 </wgt>
<wgt id='1864'> +7.6391772e+01 </wgt>
<wgt id='1865'> +7.6062892e+01 </wgt>
<wgt id='1866'> +7.6834155e+01 </wgt>
<wgt id='1867'> +7.5992010e+01 </wgt>
<wgt id='1868'> +7.6313729e+01 </wgt>
<wgt id='1869'> +7.6115225e+01 </wgt>
<wgt id='1870'> +7.7171977e+01 </wgt>
<wgt id='1871'> +7.5840736e+01 </wgt>
<wgt id='1872'> +7.6294586e+01 </wgt>
<wgt id='1873'> +7.6989946e+01 </wgt>
<wgt id='1874'> +7.5175656e+01 </wgt>
<wgt id='1875'> +7.5897631e+01 </wgt>
<wgt id='1876'> +7.6563275e+01 </wgt>
<wgt id='1877'> +7.5459150e+01 </wgt>
<wgt id='1878'> +7.6175585e+01 </wgt>
<wgt id='1879'> +7.6658645e+01 </wgt>
<wgt id='1880'> +7.6354485e+01 </wgt>
<wgt id='1881'> +7.6046466e+01 </wgt>
<wgt id='1882'> +7.6196155e+01 </wgt>
<wgt id='1883'> +7.6239322e+01 </wgt>
<wgt id='1884'> +7.6094005e+01 </wgt>
<wgt id='1885'> +7.6301351e+01 </wgt>
<wgt id='1886'> +7.5515000e+01 </wgt>
<wgt id='1887'> +7.6215248e+01 </wgt>
<wgt id='1888'> +7.5406338e+01 </wgt>
<wgt id='1889'> +7.5801819e+01 </wgt>
<wgt id='1890'> +7.6626864e+01 </wgt>
<wgt id='1891'> +7.6542263e+01 </wgt>
<wgt id='1892'> +7.6243586e+01 </wgt>
<wgt id='1893'> +7.6266257e+01 </wgt>
<wgt id='1894'> +7.6599403e+01 </wgt>
<wgt id='1895'> +7.5982613e+01 </wgt>
<wgt id='1896'> +7.6144307e+01 </wgt>
<wgt id='1897'> +7.5980567e+01 </wgt>
<wgt id='1898'> +7.6240598e+01 </wgt>
<wgt id='1899'> +7.6150996e+01 </wgt>
<wgt id='1900'> +7.6453983e+01 </wgt>
<wgt id='1901'> +7.6065960e+01 </wgt>
<wgt id='1902'> +7.5634260e+01 </wgt>
<wgt id='1903'> +7.6100729e+01 </wgt>
<wgt id='1904'> +7.6324887e+01 </wgt>
<wgt id='1905'> +7.6311929e+01 </wgt>
<wgt id='1906'> +7.6209020e+01 </wgt>
<wgt id='1907'> +7.6267407e+01 </wgt>
<wgt id='1908'> +7.6457116e+01 </wgt>
<wgt id='1909'> +7.6191433e+01 </wgt>
<wgt id='1910'> +7.6410346e+01 </wgt>
<wgt id='1911'> +7.6570229e+01 </wgt>
<wgt id='1912'> +7.6073255e+01 </wgt>
<wgt id='1913'> +7.6226545e+01 </wgt>
<wgt id='1914'> +7.6160676e+01 </wgt>
<wgt id='1915'> +7.6425634e+01 </wgt>
<wgt id='1916'> +7.6142847e+01 </wgt>
<wgt id='1917'> +7.6247163e+01 </wgt>
<wgt id='1918'> +7.6357062e+01 </wgt>
<wgt id='1919'> +7.5959075e+01 </wgt>
<wgt id='1920'> +7.6931093e+01 </wgt>
<wgt id='1921'> +7.5983150e+01 </wgt>
<wgt id='1922'> +7.6417237e+01 </wgt>
<wgt id='1923'> +7.6592660e+01 </wgt>
<wgt id='1924'> +7.6322673e+01 </wgt>
<wgt id='1925'> +7.6269325e+01 </wgt>
<wgt id='1926'> +7.6352419e+01 </wgt>
<wgt id='1927'> +7.6500573e+01 </wgt>
<wgt id='1928'> +7.6221141e+01 </wgt>
<wgt id='1929'> +7.6328066e+01 </wgt>
<wgt id='1930'> +7.6231026e+01 </wgt>
<wgt id='1931'> +7.6228221e+01 </wgt>
<wgt id='1932'> +7.6308580e+01 </wgt>
<wgt id='1933'> +7.6135038e+01 </wgt>
<wgt id='1934'> +7.6072115e+01 </wgt>
<wgt id='1935'> +7.6428379e+01 </wgt>
<wgt id='1936'> +7.6321765e+01 </wgt>
<wgt id='1937'> +7.6311417e+01 </wgt>
<wgt id='1938'> +7.6272947e+01 </wgt>
<wgt id='1939'> +7.6223193e+01 </wgt>
<wgt id='1940'> +7.6239170e+01 </wgt>
<wgt id='1941'> +7.6308538e+01 </wgt>
<wgt id='1942'> +7.6202868e+01 </wgt>
<wgt id='1943'> +7.6328537e+01 </wgt>
<wgt id='1944'> +7.6304822e+01 </wgt>
<wgt id='1945'> +7.6271388e+01 </wgt>
<wgt id='1946'> +7.6257869e+01 </wgt>
<wgt id='1947'> +7.6229634e+01 </wgt>
<wgt id='1948'> +7.6309179e+01 </wgt>
<wgt id='1949'> +7.6183466e+01 </wgt>
<wgt id='1950'> +7.6273504e+01 </wgt>
<wgt id='1951'> +7.6330499e+01 </wgt>
<wgt id='1952'> +7.6286230e+01 </wgt>
<wgt id='1953'> +7.6234632e+01 </wgt>
<wgt id='1954'> +7.6247760e+01 </wgt>
<wgt id='1955'> +7.6272358e+01 </wgt>
<wgt id='1956'> +7.6282119e+01 </wgt>
<wgt id='1957'> +7.6284445e+01 </wgt>
<wgt id='1958'> +7.6282865e+01 </wgt>
<wgt id='1959'> +7.6282939e+01 </wgt>
<wgt id='1960'> +7.6283591e+01 </wgt>
<wgt id='1961'> +7.6282654e+01 </wgt>
<wgt id='1962'> +7.6284799e+01 </wgt>
</rwgt>
</event>
<event npLO=" -1 " npNLO=" 1 ">
 8      1 -1.5146096e+02 1.77219980e+01 7.54677110e-03 1.34089320e-01
       -1 -1    0    0    0  501 +0.0000000000e+00 +0.0000000000e+00 +6.0703563000e+02 6.0703563000e+02 0.0000000000e+00 0.0000e+00 9.0000e+00
        1 -1    0    0  502    0 +0.0000000000e+00 +0.0000000000e+00 -4.2799920000e+01 4.2799920000e+01 0.0000000000e+00 0.0000e+00 9.0000e+00
       23  2    1    2    0    0 +1.0774756000e+01 -1.3732414000e+01 +4.2169641000e+00 8.8300534000e+01 8.6455347000e+01 0.0000e+00 0.0000e+00
       13  1    3    3    0    0 +1.5503657000e+01 -4.5070360000e+00 +2.4767256000e+01 2.9565076000e+01 0.0000000000e+00 0.0000e+00 9.0000e+00
      -13  1    3    3    0    0 -2.3964643000e+01 +5.7752654000e+00 -2.3631549000e+01 3.4148322000e+01 0.0000000000e+00 0.0000e+00 9.0000e+00
       22  1    3    3    0    0 +1.9235742000e+01 -1.5000643000e+01 +3.0812572000e+00 2.4587135000e+01 0.0000000000e+00 0.0000e+00 9.0000e+00
       21  1    1    2  503  501 -1.0179601000e+01 +1.5806780000e+01 +5.5867826000e+02 5.5899452000e+02 0.0000000000e+00 0.0000e+00 9.0000e+00
       21  1    1    2  502  503 -5.9515548000e-01 -2.0743659000e+00 +1.3404861000e+00 2.5404935000e+00 0.0000000000e+00 0.0000e+00 9.0000e+00
#aMCatNLO 2  0  0  6  2 0.50057331E+01 0.00000000E+00 -9  7  0 0.00000000E+00 0.00000000E+00 0.00000000E+00 0.00000000E+00 0.00000000E+00
<rwgt>
<wgt id='1001'> -1.5146000e+02 </wgt>
<wgt id='1002'> -1.5146000e+02 </wgt>
<wgt id='1003'> -1.4117000e+02 </wgt>
<wgt id='1004'> -1.5041000e+02 </wgt>
<wgt id='1005'> -1.6089000e+02 </wgt>
<wgt id='1006'> -1.5330000e+02 </wgt>
<wgt id='1007'> -1.5476000e+02 </wgt>
<wgt id='1008'> -1.4292000e+02 </wgt>
<wgt id='1009'> -1.5029000e+02 </wgt>
<wgt id='1010'> -1.4725000e+02 </wgt>
<wgt id='1011'> -1.5747000e+02 </wgt>
<wgt id='1012'> -1.5181000e+02 </wgt>
<wgt id='1013'> -1.4426000e+02 </wgt>
<wgt id='1014'> -1.5281000e+02 </wgt>
<wgt id='1015'> -1.5787000e+02 </wgt>
<wgt id='1016'> -1.5301000e+02 </wgt>
<wgt id='1017'> -1.4961000e+02 </wgt>
<wgt id='1018'> -1.5834000e+02 </wgt>
<wgt id='1019'> -1.4792000e+02 </wgt>
<wgt id='1020'> -1.4619000e+02 </wgt>
<wgt id='1021'> -1.5064000e+02 </wgt>
<wgt id='1022'> -1.5585000e+02 </wgt>
<wgt id='1023'> -1.6261000e+02 </wgt>
<wgt id='1024'> -1.5113000e+02 </wgt>
<wgt id='1025'> -1.6181000e+02 </wgt>
<wgt id='1026'> -1.6258000e+02 </wgt>
<wgt id='1027'> -1.5091000e+02 </wgt>
<wgt id='1028'> -1.4720000e+02 </wgt>
<wgt id='1029'> -1.5455000e+02 </wgt>
<wgt id='1030'> -1.5091000e+02 </wgt>
<wgt id='1031'> -1.4752000e+02 </wgt>
<wgt id='1032'> -1.5659000e+02 </wgt>
<wgt id='1033'> -1.6158000e+02 </wgt>
<wgt id='1034'> -1.4650000e+02 </wgt>
<wgt id='1035'> -1.5512000e+02 </wgt>
<wgt id='1036'> -1.5548000e+02 </wgt>
<wgt id='1037'> -1.6248000e+02 </wgt>
<wgt id='1038'> -1.4669000e+02 </wgt>
<wgt id='1039'> -1.5436000e+02 </wgt>
<wgt id='1040'> -1.4347000e+02 </wgt>
<wgt id='1041'> -1.5097000e+02 </wgt>
<wgt id='1042'> -1.5034000e+02 </wgt>
<wgt id='1043'> -1.4844000e+02 </wgt>
<wgt id='1044'> -1.5096000e+02 </wgt>
<wgt id='1045'> -1.5212000e+02 </wgt>
<wgt id='1046'> -1.5283000e+02 </wgt>
<wgt id='1047'> -1.4751000e+02 </wgt>
<wgt id='1048'> -1.4830000e+02 </wgt>
<wgt id='1049'> -1.4563000e+02 </wgt>
<wgt id='1050'> -1.4789000e+02 </wgt>
<wgt id='1051'> -1.5872000e+02 </wgt>
<wgt id='1052'> -1.5130000e+02 </wgt>
<wgt id='1053'> -1.4842000e+02 </wgt>
<wgt id='1054'> -1.4833000e+02 </wgt>
<wgt id='1055'> -1.5044000e+02 </wgt>
<wgt id='1056'> -1.5121000e+02 </wgt>
<wgt id='1057'> -1.5551000e+02 </wgt>
<wgt id='1058'> -1.4597000e+02 </wgt>
<wgt id='1059'> -1.5019000e+02 </wgt>
<wgt id='1060'> -1.4534000e+02 </wgt>
<wgt id='1061'> -1.5520000e+02 </wgt>
<wgt id='1062'> -1.4854000e+02 </wgt>
<wgt id='1063'> -1.5100000e+02 </wgt>
<wgt id='1064'> -1.5146000e+02 </wgt>
<wgt id='1065'> -1.6022000e+02 </wgt>
<wgt id='1066'> -1.4146000e+02 </wgt>
<wgt id='1067'> -1.5350000e+02 </wgt>
<wgt id='1068'> -1.5794000e+02 </wgt>
<wgt id='1069'> -1.4330000e+02 </wgt>
<wgt id='1070'> -1.5058000e+02 </wgt>
<wgt id='1071'> -1.5109000e+02 </wgt>
<wgt id='1072'> -1.5759000e+02 </wgt>
<wgt id='1073'> -1.5167000e+02 </wgt>
<wgt id='1074'> -1.4542000e+02 </wgt>
<wgt id='1075'> -1.4009000e+02 </wgt>
<wgt id='1076'> -1.5568000e+02 </wgt>
<wgt id='1077'> -1.4888000e+02 </wgt>
<wgt id='1078'> -1.4514000e+02 </wgt>
<wgt id='1079'> -1.5463000e+02 </wgt>
<wgt id='1080'> -1.5349000e+02 </wgt>
<wgt id='1081'> -1.4553000e+02 </wgt>
<wgt id='1082'> -1.5514000e+02 </wgt>
<wgt id='1083'> -1.5135000e+02 </wgt>
<wgt id='1084'> -1.5137000e+02 </wgt>
<wgt id='1085'> -1.4290000e+02 </wgt>
<wgt id='1086'> -1.5885000e+02 </wgt>
<wgt id='1087'> -1.5571000e+02 </wgt>
<wgt id='1088'> -1.5321000e+02 </wgt>
<wgt id='1089'> -1.4616000e+02 </wgt>
<wgt id='1090'> -1.4966000e+02 </wgt>
<wgt id='1091'> -1.5169000e+02 </wgt>
<wgt id='1092'> -1.5872000e+02 </wgt>
<wgt id='1093'> -1.5432000e+02 </wgt>
<wgt id='1094'> -1.5021000e+02 </wgt>
<wgt id='1095'> -1.5128000e+02 </wgt>
<wgt id='1096'> -1.5204000e+02 </wgt>
<wgt id='1097'> -1.4607000e+02 </wgt>
<wgt id='1098'> -1.4564000e+02 </wgt>
<wgt id='1099'> -1.6496000e+02 </wgt>
<wgt id='1100'> -1.5110000e+02 </wgt>
<wgt id='1101'> -1.4975000e+02 </wgt>
<wgt id='1102'> -1.4500000e+02 </wgt>
<wgt id='1103'> -1.4732000e+02 </wgt>
<wgt id='1104'> -1.5439000e+02 </wgt>
<wgt id='1105'> -1.5146096e+02 </wgt>
<wgt id='1106'> -5.8129832e+01 </wgt>
<wgt id='1107'> -1.0292473e+02 </wgt>
<wgt id='1108'> -7.7997224e+01 </wgt>
<wgt id='1109'> -5.9869800e+01 </wgt>
<wgt id='1110'> -1.0600535e+02 </wgt>
<wgt id='1111'> -7.2447017e+01 </wgt>
<wgt id='1112'> -5.5609429e+01 </wgt>
<wgt id='1113'> -9.8462329e+01 </wgt>
<wgt id='1114'> -8.1272989e+01 </wgt>
<wgt id='1115'> -9.1838168e+01 </wgt>
<wgt id='1116'> -8.2177990e+01 </wgt>
<wgt id='1117'> -8.5951791e+01 </wgt>
<wgt id='1118'> -8.4521869e+01 </wgt>
<wgt id='1119'> -8.2934243e+01 </wgt>
<wgt id='1120'> -8.2939292e+01 </wgt>
<wgt id='1121'> -8.1087100e+01 </wgt>
<wgt id='1122'> -7.6398809e+01 </wgt>
<wgt id='1123'> -7.5952512e+01 </wgt>
<wgt id='1124'> -8.1784440e+01 </wgt>
<wgt id='1125'> -7.9049171e+01 </wgt>
<wgt id='1126'> -7.9420102e+01 </wgt>
<wgt id='1127'> -8.3104634e+01 </wgt>
<wgt id='1128'> -8.1698337e+01 </wgt>
<wgt id='1129'> -7.8705628e+01 </wgt>
<wgt id='1130'> -8.1081355e+01 </wgt>
<wgt id='1131'> -8.5456025e+01 </wgt>
<wgt id='1132'> -8.0036819e+01 </wgt>
<wgt id='1133'> -8.4634836e+01 </wgt>
<wgt id='1134'> -7.7825604e+01 </wgt>
<wgt id='1135'> -8.1064070e+01 </wgt>
<wgt id='1136'> -8.6214631e+01 </wgt>
<wgt id='1137'> -8.1375262e+01 </wgt>
<wgt id='1138'> -8.1751148e+01 </wgt>
<wgt id='1139'> -7.5038815e+01 </wgt>
<wgt id='1140'> -8.2987573e+01 </wgt>
<wgt id='1141'> -9.0607563e+01 </wgt>
<wgt id='1142'> -8.2659879e+01 </wgt>
<wgt id='1143'> -7.9295985e+01 </wgt>
<wgt id='1144'> -8.2495624e+01 </wgt>
<wgt id='1145'> -8.2648188e+01 </wgt>
<wgt id='1146'> -7.9698287e+01 </wgt>
<wgt id='1147'> -8.7345220e+01 </wgt>
<wgt id='1148'> -7.8981456e+01 </wgt>
<wgt id='1149'> -8.2501131e+01 </wgt>
<wgt id='1150'> -8.0482277e+01 </wgt>
<wgt id='1151'> -8.0698367e+01 </wgt>
<wgt id='1152'> -7.9257347e+01 </wgt>
<wgt id='1153'> -7.9728744e+01 </wgt>
<wgt id='1154'> -7.9413789e+01 </wgt>
<wgt id='1155'> -8.4575658e+01 </wgt>
<wgt id='1156'> -8.2428273e+01 </wgt>
<wgt id='1157'> -9.1030897e+01 </wgt>
<wgt id='1158'> -8.1739607e+01 </wgt>
<wgt id='1159'> -7.9601368e+01 </wgt>
<wgt id='1160'> -8.1598462e+01 </wgt>
<wgt id='1161'> -8.3066731e+01 </wgt>
<wgt id='1162'> -7.9643256e+01 </wgt>
<wgt id='1163'> -7.9961374e+01 </wgt>
<wgt id='1164'> -8.1607686e+01 </wgt>
<wgt id='1165'> -8.2330184e+01 </wgt>
<wgt id='1166'> -7.7111184e+01 </wgt>
<wgt id='1167'> -8.0703037e+01 </wgt>
<wgt id='1168'> -8.3585512e+01 </wgt>
<wgt id='1169'> -8.4764991e+01 </wgt>
<wgt id='1170'> -8.3187098e+01 </wgt>
<wgt id='1171'> -8.3261883e+01 </wgt>
<wgt id='1172'> -8.0606896e+01 </wgt>
<wgt id='1173'> -7.6177742e+01 </wgt>
<wgt id='1174'> -8.1354565e+01 </wgt>
<wgt id='1175'> -8.1683264e+01 </wgt>
<wgt id='1176'> -8.3669555e+01 </wgt>
<wgt id='1177'> -8.4709264e+01 </wgt>
<wgt id='1178'> -8.0688381e+01 </wgt>
<wgt id='1179'> -8.1111201e+01 </wgt>
<wgt id='1180'> -7.9674674e+01 </wgt>
<wgt id='1181'> -8.6823033e+01 </wgt>
<wgt id='1182'> -8.4745982e+01 </wgt>
<wgt id='1183'> -7.8698197e+01 </wgt>
<wgt id='1184'> -7.9653533e+01 </wgt>
<wgt id='1185'> -8.3695638e+01 </wgt>
<wgt id='1186'> -8.6164756e+01 </wgt>
<wgt id='1187'> -7.1714943e+01 </wgt>
<wgt id='1188'> -7.5904629e+01 </wgt>
<wgt id='1189'> -8.1328896e+01 </wgt>
<wgt id='1190'> -8.6228392e+01 </wgt>
<wgt id='1191'> -7.7619153e+01 </wgt>
<wgt id='1192'> -7.5894386e+01 </wgt>
<wgt id='1193'> -8.0811374e+01 </wgt>
<wgt id='1194'> -8.5893034e+01 </wgt>
<wgt id='1195'> -8.2498062e+01 </wgt>
<wgt id='1196'> -8.1081355e+01 </wgt>
<wgt id='1197'> -7.7173095e+01 </wgt>
<wgt id='1198'> -8.0647318e+01 </wgt>
<wgt id='1199'> -7.7437862e+01 </wgt>
<wgt id='1200'> -8.9768203e+01 </wgt>
<wgt id='1201'> -7.7995274e+01 </wgt>
<wgt id='1202'> -8.5179285e+01 </wgt>
<wgt id='1203'> -6.5335596e+01 </wgt>
<wgt id='1204'> -7.7633685e+01 </wgt>
<wgt id='1205'> -7.8401718e+01 </wgt>
<wgt id='1206'> -6.8861186e+01 </wgt>
<wgt id='1207'> -7.8676438e+01 </wgt>
<wgt id='1208'> -8.1530282e+01 </wgt>
<wgt id='1209'> -7.9159666e+01 </wgt>
<wgt id='1210'> -7.8019905e+01 </wgt>
<wgt id='1211'> -8.6359754e+01 </wgt>
<wgt id='1212'> -8.5423305e+01 </wgt>
<wgt id='1213'> -8.2511583e+01 </wgt>
<wgt id='1214'> -7.9372420e+01 </wgt>
<wgt id='1215'> -7.6478231e+01 </wgt>
<wgt id='1216'> -8.2107918e+01 </wgt>
<wgt id='1217'> -8.2072183e+01 </wgt>
<wgt id='1218'> -8.2082514e+01 </wgt>
<wgt id='1219'> -8.2027174e+01 </wgt>
<wgt id='1220'> -8.2830047e+01 </wgt>
<wgt id='1221'> -8.1862238e+01 </wgt>
<wgt id='1222'> -8.1952202e+01 </wgt>
<wgt id='1223'> -8.1920400e+01 </wgt>
<wgt id='1224'> -8.1708926e+01 </wgt>
<wgt id='1225'> -8.2235489e+01 </wgt>
<wgt id='1226'> -8.1196914e+01 </wgt>
<wgt id='1227'> -8.2109106e+01 </wgt>
<wgt id='1228'> -8.2219533e+01 </wgt>
<wgt id='1229'> -8.2295105e+01 </wgt>
<wgt id='1230'> -8.2648958e+01 </wgt>
<wgt id='1231'> -8.1407686e+01 </wgt>
<wgt id='1232'> -8.2430976e+01 </wgt>
<wgt id='1233'> -8.1706829e+01 </wgt>
<wgt id='1234'> -8.2155054e+01 </wgt>
<wgt id='1235'> -8.2045311e+01 </wgt>
<wgt id='1236'> -8.1883408e+01 </wgt>
<wgt id='1237'> -8.2889713e+01 </wgt>
<wgt id='1238'> -8.2076278e+01 </wgt>
<wgt id='1239'> -8.2167932e+01 </wgt>
<wgt id='1240'> -8.2696302e+01 </wgt>
<wgt id='1241'> -8.1759391e+01 </wgt>
<wgt id='1242'> -8.1958256e+01 </wgt>
<wgt id='1243'> -8.2310849e+01 </wgt>
<wgt id='1244'> -8.1979147e+01 </wgt>
<wgt id='1245'> -8.2815080e+01 </wgt>
<wgt id='1246'> -8.3059899e+01 </wgt>
<wgt id='1247'> -8.2226661e+01 </wgt>
<wgt id='1248'> -8.1592269e+01 </wgt>
<wgt id='1249'> -8.1951937e+01 </wgt>
<wgt id='1250'> -8.2120702e+01 </wgt>
<wgt id='1251'> -8.1333145e+01 </wgt>
<wgt id='1252'> -8.1254639e+01 </wgt>
<wgt id='1253'> -8.2003676e+01 </wgt>
<wgt id='1254'> -8.1550845e+01 </wgt>
<wgt id='1255'> -8.1877405e+01 </wgt>
<wgt id='1256'> -8.2018867e+01 </wgt>
<wgt id='1257'> -8.1331224e+01 </wgt>
<wgt id='1258'> -8.1932253e+01 </wgt>
<wgt id='1259'> -8.2996553e+01 </wgt>
<wgt id='1260'> -8.1762437e+01 </wgt>
<wgt id='1261'> -8.1994020e+01 </wgt>
<wgt id='1262'> -8.1786624e+01 </wgt>
<wgt id='1263'> -8.2444632e+01 </wgt>
<wgt id='1264'> -8.2246252e+01 </wgt>
<wgt id='1265'> -8.1989089e+01 </wgt>
<wgt id='1266'> -8.2690392e+01 </wgt>
<wgt id='1267'> -8.2450255e+01 </wgt>
<wgt id='1268'> -8.2012321e+01 </wgt>
<wgt id='1269'> -8.1729819e+01 </wgt>
<wgt id='1270'> -8.1933974e+01 </wgt>
<wgt id='1271'> -8.2204678e+01 </wgt>
<wgt id='1272'> -8.1992960e+01 </wgt>
<wgt id='1273'> -8.1825611e+01 </wgt>
<wgt id='1274'> -8.1290180e+01 </wgt>
<wgt id='1275'> -8.1886363e+01 </wgt>
<wgt id='1276'> -8.2180666e+01 </wgt>
<wgt id='1277'> -8.2377541e+01 </wgt>
<wgt id='1278'> -8.2570011e+01 </wgt>
<wgt id='1279'> -8.2422545e+01 </wgt>
<wgt id='1280'> -8.2335733e+01 </wgt>
<wgt id='1281'> -8.2253503e+01 </wgt>
<wgt id='1282'> -8.2265910e+01 </wgt>
<wgt id='1283'> -8.2475036e+01 </wgt>
<wgt id='1284'> -8.2236517e+01 </wgt>
<wgt id='1285'> -8.2154112e+01 </wgt>
<wgt id='1286'> -8.2399842e+01 </wgt>
<wgt id='1287'> -8.1936383e+01 </wgt>
<wgt id='1288'> -8.2311291e+01 </wgt>
<wgt id='1289'> -8.2069463e+01 </wgt>
<wgt id='1290'> -8.1926383e+01 </wgt>
<wgt id='1291'> -8.1895898e+01 </wgt>
<wgt id='1292'> -8.2130457e+01 </wgt>
<wgt id='1293'> -8.1974970e+01 </wgt>
<wgt id='1294'> -8.2084267e+01 </wgt>
<wgt id='1295'> -8.1939233e+01 </wgt>
<wgt id='1296'> -8.1957915e+01 </wgt>
<wgt id='1297'> -8.2109566e+01 </wgt>
<wgt id='1298'> -8.2184631e+01 </wgt>
<wgt id='1299'> -8.2091091e+01 </wgt>
<wgt id='1300'> -8.1908929e+01 </wgt>
<wgt id='1301'> -8.2136587e+01 </wgt>
<wgt id='1302'> -8.1996894e+01 </wgt>
<wgt id='1303'> -8.2314334e+01 </wgt>
<wgt id='1304'> -8.2140004e+01 </wgt>
<wgt id='1305'> -8.2539884e+01 </wgt>
<wgt id='1306'> -8.1953420e+01 </wgt>
<wgt id='1307'> -8.2354518e+01 </wgt>
<wgt id='1308'> -8.2190300e+01 </wgt>
<wgt id='1309'> -8.1733210e+01 </wgt>
<wgt id='1310'> -8.1955414e+01 </wgt>
<wgt id='1311'> -8.2399611e+01 </wgt>
<wgt id='1312'> -8.1885684e+01 </wgt>
<wgt id='1313'> -8.1918918e+01 </wgt>
<wgt id='1314'> -8.2119946e+01 </wgt>
<wgt id='1315'> -8.2263924e+01 </wgt>
<wgt id='1316'> -8.2239581e+01 </wgt>
<wgt id='1317'> -7.9359966e+01 </wgt>
<wgt id='1318'> -8.5997106e+01 </wgt>
<wgt id='1319'> -1.0362263e+02 </wgt>
<wgt id='1320'> -7.4550070e+01 </wgt>
<wgt id='1321'> -7.4697814e+01 </wgt>
<wgt id='1322'> -7.6118717e+01 </wgt>
<wgt id='1323'> -7.3120761e+01 </wgt>
<wgt id='1324'> -7.5170798e+01 </wgt>
<wgt id='1325'> -7.6408331e+01 </wgt>
<wgt id='1326'> -7.3841849e+01 </wgt>
<wgt id='1327'> -7.5695736e+01 </wgt>
<wgt id='1328'> -7.2860939e+01 </wgt>
<wgt id='1329'> -7.3371277e+01 </wgt>
<wgt id='1330'> -7.6016892e+01 </wgt>
<wgt id='1331'> -7.1107668e+01 </wgt>
<wgt id='1332'> -7.6977698e+01 </wgt>
<wgt id='1333'> -7.6735218e+01 </wgt>
<wgt id='1334'> -7.1813939e+01 </wgt>
<wgt id='1335'> -7.7596750e+01 </wgt>
<wgt id='1336'> -7.0339895e+01 </wgt>
<wgt id='1337'> -7.7607287e+01 </wgt>
<wgt id='1338'> -7.1061398e+01 </wgt>
<wgt id='1339'> -7.4757948e+01 </wgt>
<wgt id='1340'> -7.4389910e+01 </wgt>
<wgt id='1341'> -7.5064178e+01 </wgt>
<wgt id='1342'> -7.3645840e+01 </wgt>
<wgt id='1343'> -7.3875685e+01 </wgt>
<wgt id='1344'> -7.4960747e+01 </wgt>
<wgt id='1345'> -7.4940867e+01 </wgt>
<wgt id='1346'> -7.4208394e+01 </wgt>
<wgt id='1347'> -7.3295522e+01 </wgt>
<wgt id='1348'> -7.6199694e+01 </wgt>
<wgt id='1349'> -7.6153889e+01 </wgt>
<wgt id='1350'> -7.3988420e+01 </wgt>
<wgt id='1351'> -7.4235540e+01 </wgt>
<wgt id='1352'> -7.4945645e+01 </wgt>
<wgt id='1353'> -7.3683721e+01 </wgt>
<wgt id='1354'> -7.6524882e+01 </wgt>
<wgt id='1355'> -7.7600989e+01 </wgt>
<wgt id='1356'> -7.1675344e+01 </wgt>
<wgt id='1357'> -7.4435091e+01 </wgt>
<wgt id='1358'> -7.4051222e+01 </wgt>
<wgt id='1359'> -7.1044231e+01 </wgt>
<wgt id='1360'> -7.6359286e+01 </wgt>
<wgt id='1361'> -7.3495476e+01 </wgt>
<wgt id='1362'> -7.5874886e+01 </wgt>
<wgt id='1363'> -7.5277349e+01 </wgt>
<wgt id='1364'> -7.3241706e+01 </wgt>
<wgt id='1365'> -7.4877782e+01 </wgt>
<wgt id='1366'> -7.3556480e+01 </wgt>
<wgt id='1367'> -7.3360415e+01 </wgt>
<wgt id='1368'> -7.3411608e+01 </wgt>
<wgt id='1369'> -7.3875100e+01 </wgt>
<wgt id='1370'> -7.3950036e+01 </wgt>
<wgt id='1371'> -7.2721885e+01 </wgt>
<wgt id='1372'> -7.2644056e+01 </wgt>
<wgt id='1373'> -7.4080607e+01 </wgt>
<wgt id='1374'> -7.4031856e+01 </wgt>
<wgt id='1375'> -7.3262004e+01 </wgt>
<wgt id='1376'> -7.6644601e+01 </wgt>
<wgt id='1377'> -7.0760014e+01 </wgt>
<wgt id='1378'> -7.8456169e+01 </wgt>
<wgt id='1379'> -7.3080012e+01 </wgt>
<wgt id='1380'> -6.9365454e+01 </wgt>
<wgt id='1381'> -7.7072643e+01 </wgt>
<wgt id='1382'> -7.6746947e+01 </wgt>
<wgt id='1383'> -8.1151375e+01 </wgt>
<wgt id='1384'> -8.1677542e+01 </wgt>
<wgt id='1385'> -1.0368354e+02 </wgt>
<wgt id='1386'> -1.0414928e+02 </wgt>
<wgt id='1387'> -1.0316279e+02 </wgt>
<wgt id='1388'> -1.0387907e+02 </wgt>
<wgt id='1389'> -1.0332551e+02 </wgt>
<wgt id='1390'> -1.0410954e+02 </wgt>
<wgt id='1391'> -1.0317703e+02 </wgt>
<wgt id='1392'> -1.0365595e+02 </wgt>
<wgt id='1393'> -1.0371233e+02 </wgt>
<wgt id='1394'> -1.0373163e+02 </wgt>
<wgt id='1395'> -1.0362649e+02 </wgt>
<wgt id='1396'> -1.0294095e+02 </wgt>
<wgt id='1397'> -1.0406678e+02 </wgt>
<wgt id='1398'> -1.0295656e+02 </wgt>
<wgt id='1399'> -1.0423255e+02 </wgt>
<wgt id='1400'> -1.0404362e+02 </wgt>
<wgt id='1401'> -1.0340487e+02 </wgt>
<wgt id='1402'> -1.0183832e+02 </wgt>
<wgt id='1403'> -1.0452119e+02 </wgt>
<wgt id='1404'> -1.0278710e+02 </wgt>
<wgt id='1405'> -1.0414941e+02 </wgt>
<wgt id='1406'> -1.0357314e+02 </wgt>
<wgt id='1407'> -1.0386570e+02 </wgt>
<wgt id='1408'> -1.0246088e+02 </wgt>
<wgt id='1409'> -1.0616274e+02 </wgt>
<wgt id='1410'> -1.0345800e+02 </wgt>
<wgt id='1411'> -1.0404039e+02 </wgt>
<wgt id='1412'> -1.0372220e+02 </wgt>
<wgt id='1413'> -1.0357533e+02 </wgt>
<wgt id='1414'> -1.0328551e+02 </wgt>
<wgt id='1415'> -1.0397147e+02 </wgt>
<wgt id='1416'> -1.0269127e+02 </wgt>
<wgt id='1417'> -1.0390304e+02 </wgt>
<wgt id='1418'> -1.0263154e+02 </wgt>
<wgt id='1419'> -1.0593925e+02 </wgt>
<wgt id='1420'> -1.0258543e+02 </wgt>
<wgt id='1421'> -1.0441838e+02 </wgt>
<wgt id='1422'> -1.0250820e+02 </wgt>
<wgt id='1423'> -1.0493457e+02 </wgt>
<wgt id='1424'> -1.0487818e+02 </wgt>
<wgt id='1425'> -1.0184296e+02 </wgt>
<wgt id='1426'> -1.0507083e+02 </wgt>
<wgt id='1427'> -1.0339299e+02 </wgt>
<wgt id='1428'> -1.0229351e+02 </wgt>
<wgt id='1429'> -1.0306780e+02 </wgt>
<wgt id='1430'> -1.0462989e+02 </wgt>
<wgt id='1431'> -1.0427876e+02 </wgt>
<wgt id='1432'> -1.0424346e+02 </wgt>
<wgt id='1433'> -1.0487750e+02 </wgt>
<wgt id='1434'> -1.0268511e+02 </wgt>
<wgt id='1435'> -1.0236600e+02 </wgt>
<wgt id='1436'> -5.9158852e+01 </wgt>
<wgt id='1437'> -5.9151084e+01 </wgt>
<wgt id='1438'> -5.9300516e+01 </wgt>
<wgt id='1439'> -5.9169447e+01 </wgt>
<wgt id='1440'> -5.8678421e+01 </wgt>
<wgt id='1441'> -5.9830084e+01 </wgt>
<wgt id='1442'> -5.8885754e+01 </wgt>
<wgt id='1443'> -5.9019370e+01 </wgt>
<wgt id='1444'> -5.9153541e+01 </wgt>
<wgt id='1445'> -5.8238824e+01 </wgt>
<wgt id='1446'> -5.9763143e+01 </wgt>
<wgt id='1447'> -5.8955881e+01 </wgt>
<wgt id='1448'> -5.8854352e+01 </wgt>
<wgt id='1449'> -5.9195131e+01 </wgt>
<wgt id='1450'> -5.9148435e+01 </wgt>
<wgt id='1451'> -5.9291692e+01 </wgt>
<wgt id='1452'> -5.9065203e+01 </wgt>
<wgt id='1453'> -5.9246597e+01 </wgt>
<wgt id='1454'> -5.9333302e+01 </wgt>
<wgt id='1455'> -5.9216000e+01 </wgt>
<wgt id='1456'> -6.0239242e+01 </wgt>
<wgt id='1457'> -5.9318861e+01 </wgt>
<wgt id='1458'> -5.9449818e+01 </wgt>
<wgt id='1459'> -5.9790773e+01 </wgt>
<wgt id='1460'> -5.9088339e+01 </wgt>
<wgt id='1461'> -5.8764780e+01 </wgt>
<wgt id='1462'> -5.9822061e+01 </wgt>
<wgt id='1463'> -5.8302560e+01 </wgt>
<wgt id='1464'> -5.8632663e+01 </wgt>
<wgt id='1465'> -7.2849159e+01 </wgt>
<wgt id='1466'> -7.7168333e+01 </wgt>
<wgt id='1467'> -7.7866753e+01 </wgt>
<wgt id='1468'> -7.7391097e+01 </wgt>
<wgt id='1469'> -7.8639382e+01 </wgt>
<wgt id='1470'> -7.6953903e+01 </wgt>
<wgt id='1471'> -7.6522330e+01 </wgt>
<wgt id='1472'> -7.7201929e+01 </wgt>
<wgt id='1473'> -7.7232048e+01 </wgt>
<wgt id='1474'> -7.7492677e+01 </wgt>
<wgt id='1475'> -7.7268394e+01 </wgt>
<wgt id='1476'> -7.8219242e+01 </wgt>
<wgt id='1477'> -7.6901291e+01 </wgt>
<wgt id='1478'> -7.7488488e+01 </wgt>
<wgt id='1479'> -7.5883297e+01 </wgt>
<wgt id='1480'> -7.7228150e+01 </wgt>
<wgt id='1481'> -7.7465998e+01 </wgt>
<wgt id='1482'> -7.6731383e+01 </wgt>
<wgt id='1483'> -7.8536433e+01 </wgt>
<wgt id='1484'> -7.7765015e+01 </wgt>
<wgt id='1485'> -7.7123767e+01 </wgt>
<wgt id='1486'> -7.8221567e+01 </wgt>
<wgt id='1487'> -7.7156255e+01 </wgt>
<wgt id='1488'> -7.7370044e+01 </wgt>
<wgt id='1489'> -7.8409639e+01 </wgt>
<wgt id='1490'> -7.6674417e+01 </wgt>
<wgt id='1491'> -7.5045926e+01 </wgt>
<wgt id='1492'> -7.6691454e+01 </wgt>
<wgt id='1493'> -7.8222562e+01 </wgt>
<wgt id='1494'> -7.5463828e+01 </wgt>
<wgt id='1495'> -7.7159203e+01 </wgt>
<wgt id='1496'> -7.8134754e+01 </wgt>
<wgt id='1497'> -7.7057587e+01 </wgt>
<wgt id='1498'> -7.7659747e+01 </wgt>
<wgt id='1499'> -7.7311205e+01 </wgt>
<wgt id='1500'> -7.7223571e+01 </wgt>
<wgt id='1501'> -7.7783295e+01 </wgt>
<wgt id='1502'> -7.7323291e+01 </wgt>
<wgt id='1503'> -7.6867252e+01 </wgt>
<wgt id='1504'> -7.7658179e+01 </wgt>
<wgt id='1505'> -7.7744767e+01 </wgt>
<wgt id='1506'> -7.7059092e+01 </wgt>
<wgt id='1507'> -7.7393984e+01 </wgt>
<wgt id='1508'> -7.7891464e+01 </wgt>
<wgt id='1509'> -7.7118182e+01 </wgt>
<wgt id='1510'> -7.7016355e+01 </wgt>
<wgt id='1511'> -7.7924147e+01 </wgt>
<wgt id='1512'> -7.6754397e+01 </wgt>
<wgt id='1513'> -7.6945434e+01 </wgt>
<wgt id='1514'> -7.7450741e+01 </wgt>
<wgt id='1515'> -7.6980246e+01 </wgt>
<wgt id='1516'> -7.6861119e+01 </wgt>
<wgt id='1517'> -7.6738092e+01 </wgt>
<wgt id='1518'> -7.6715641e+01 </wgt>
<wgt id='1519'> -7.6934713e+01 </wgt>
<wgt id='1520'> -7.6451040e+01 </wgt>
<wgt id='1521'> -7.7168216e+01 </wgt>
<wgt id='1522'> -7.7254608e+01 </wgt>
<wgt id='1523'> -7.7107737e+01 </wgt>
<wgt id='1524'> -7.7651877e+01 </wgt>
<wgt id='1525'> -7.6918210e+01 </wgt>
<wgt id='1526'> -7.6818965e+01 </wgt>
<wgt id='1527'> -7.7055337e+01 </wgt>
<wgt id='1528'> -7.7429778e+01 </wgt>
<wgt id='1529'> -7.7144052e+01 </wgt>
<wgt id='1530'> -7.7033259e+01 </wgt>
<wgt id='1531'> -7.7277630e+01 </wgt>
<wgt id='1532'> -7.7473935e+01 </wgt>
<wgt id='1533'> -7.6842194e+01 </wgt>
<wgt id='1534'> -7.7303125e+01 </wgt>
<wgt id='1535'> -7.7146565e+01 </wgt>
<wgt id='1536'> -7.7555804e+01 </wgt>
<wgt id='1537'> -7.6838740e+01 </wgt>
<wgt id='1538'> -7.7129760e+01 </wgt>
<wgt id='1539'> -7.7069794e+01 </wgt>
<wgt id='1540'> -7.7190855e+01 </wgt>
<wgt id='1541'> -7.7143726e+01 </wgt>
<wgt id='1542'> -7.7131846e+01 </wgt>
<wgt id='1543'> -7.7384041e+01 </wgt>
<wgt id='1544'> -7.7142936e+01 </wgt>
<wgt id='1545'> -7.7300369e+01 </wgt>
<wgt id='1546'> -7.7173141e+01 </wgt>
<wgt id='1547'> -7.7062783e+01 </wgt>
<wgt id='1548'> -7.7223715e+01 </wgt>
<wgt id='1549'> -7.7169271e+01 </wgt>
<wgt id='1550'> -7.7080583e+01 </wgt>
<wgt id='1551'> -7.7143727e+01 </wgt>
<wgt id='1552'> -7.7292799e+01 </wgt>
<wgt id='1553'> -7.7222047e+01 </wgt>
<wgt id='1554'> -7.7093975e+01 </wgt>
<wgt id='1555'> -7.7279101e+01 </wgt>
<wgt id='1556'> -7.7215216e+01 </wgt>
<wgt id='1557'> -7.7146939e+01 </wgt>
<wgt id='1558'> -7.7138347e+01 </wgt>
<wgt id='1559'> -7.7144698e+01 </wgt>
<wgt id='1560'> -7.7144579e+01 </wgt>
<wgt id='1561'> -7.7313750e+01 </wgt>
<wgt id='1562'> -7.7153204e+01 </wgt>
<wgt id='1563'> -7.7088324e+01 </wgt>
<wgt id='1564'> -7.7133391e+01 </wgt>
<wgt id='1565'> -7.7127067e+01 </wgt>
<wgt id='1566'> -7.7165642e+01 </wgt>
<wgt id='1567'> -7.4072050e+01 </wgt>
<wgt id='1568'> -7.9985968e+01 </wgt>
<wgt id='1569'> -7.7217285e+01 </wgt>
<wgt id='1570'> -7.7846973e+01 </wgt>
<wgt id='1571'> -7.7511977e+01 </wgt>
<wgt id='1572'> -7.6843159e+01 </wgt>
<wgt id='1573'> -7.7934461e+01 </wgt>
<wgt id='1574'> -7.7816934e+01 </wgt>
<wgt id='1575'> -7.6641651e+01 </wgt>
<wgt id='1576'> -7.7141509e+01 </wgt>
<wgt id='1577'> -7.7218786e+01 </wgt>
<wgt id='1578'> -7.7337116e+01 </wgt>
<wgt id='1579'> -7.6406408e+01 </wgt>
<wgt id='1580'> -7.7583891e+01 </wgt>
<wgt id='1581'> -7.7010640e+01 </wgt>
<wgt id='1582'> -7.6763358e+01 </wgt>
<wgt id='1583'> -7.7780354e+01 </wgt>
<wgt id='1584'> -7.9231220e+01 </wgt>
<wgt id='1585'> -7.6367159e+01 </wgt>
<wgt id='1586'> -7.7104033e+01 </wgt>
<wgt id='1587'> -7.8217896e+01 </wgt>
<wgt id='1588'> -7.5558786e+01 </wgt>
<wgt id='1589'> -7.6087186e+01 </wgt>
<wgt id='1590'> -7.8206619e+01 </wgt>
<wgt id='1591'> -7.5878157e+01 </wgt>
<wgt id='1592'> -7.7273269e+01 </wgt>
<wgt id='1593'> -7.7578735e+01 </wgt>
<wgt id='1594'> -7.7970584e+01 </wgt>
<wgt id='1595'> -7.7403989e+01 </wgt>
<wgt id='1596'> -7.6552947e+01 </wgt>
<wgt id='1597'> -7.7098452e+01 </wgt>
<wgt id='1598'> -7.7134951e+01 </wgt>
<wgt id='1599'> -7.7094084e+01 </wgt>
<wgt id='1600'> -7.5903957e+01 </wgt>
<wgt id='1601'> -7.6892790e+01 </wgt>
<wgt id='1602'> -7.6345488e+01 </wgt>
<wgt id='1603'> -7.6611699e+01 </wgt>
<wgt id='1604'> -7.8298374e+01 </wgt>
<wgt id='1605'> -7.7327363e+01 </wgt>
<wgt id='1606'> -7.6807062e+01 </wgt>
<wgt id='1607'> -7.6912054e+01 </wgt>
<wgt id='1608'> -7.8116875e+01 </wgt>
<wgt id='1609'> -7.7303283e+01 </wgt>
<wgt id='1610'> -7.7263647e+01 </wgt>
<wgt id='1611'> -7.7276293e+01 </wgt>
<wgt id='1612'> -7.6559150e+01 </wgt>
<wgt id='1613'> -7.7105056e+01 </wgt>
<wgt id='1614'> -7.7602698e+01 </wgt>
<wgt id='1615'> -7.7229715e+01 </wgt>
<wgt id='1616'> -7.7071961e+01 </wgt>
<wgt id='1617'> -7.7375178e+01 </wgt>
<wgt id='1618'> -7.7736871e+01 </wgt>
<wgt id='1619'> -7.7259675e+01 </wgt>
<wgt id='1620'> -7.7281628e+01 </wgt>
<wgt id='1621'> -7.7152326e+01 </wgt>
<wgt id='1622'> -7.6320202e+01 </wgt>
<wgt id='1623'> -7.7249670e+01 </wgt>
<wgt id='1624'> -7.7297568e+01 </wgt>
<wgt id='1625'> -7.7509795e+01 </wgt>
<wgt id='1626'> -7.7324336e+01 </wgt>
<wgt id='1627'> -7.7006082e+01 </wgt>
<wgt id='1628'> -7.7023856e+01 </wgt>
<wgt id='1629'> -7.6864379e+01 </wgt>
<wgt id='1630'> -7.7219752e+01 </wgt>
<wgt id='1631'> -7.7577738e+01 </wgt>
<wgt id='1632'> -7.7879203e+01 </wgt>
<wgt id='1633'> -7.7141676e+01 </wgt>
<wgt id='1634'> -7.6852752e+01 </wgt>
<wgt id='1635'> -7.7668412e+01 </wgt>
<wgt id='1636'> -7.7383319e+01 </wgt>
<wgt id='1637'> -7.7102724e+01 </wgt>
<wgt id='1638'> -7.7305639e+01 </wgt>
<wgt id='1639'> -7.7069685e+01 </wgt>
<wgt id='1640'> -7.7124566e+01 </wgt>
<wgt id='1641'> -7.7448203e+01 </wgt>
<wgt id='1642'> -7.6836027e+01 </wgt>
<wgt id='1643'> -7.7124970e+01 </wgt>
<wgt id='1644'> -7.7216870e+01 </wgt>
<wgt id='1645'> -7.7018098e+01 </wgt>
<wgt id='1646'> -7.7156206e+01 </wgt>
<wgt id='1647'> -7.7284801e+01 </wgt>
<wgt id='1648'> -7.7065894e+01 </wgt>
<wgt id='1649'> -7.7391102e+01 </wgt>
<wgt id='1650'> -7.7068179e+01 </wgt>
<wgt id='1651'> -7.7140505e+01 </wgt>
<wgt id='1652'> -7.7026743e+01 </wgt>
<wgt id='1653'> -7.7279559e+01 </wgt>
<wgt id='1654'> -7.7278332e+01 </wgt>
<wgt id='1655'> -7.7324789e+01 </wgt>
<wgt id='1656'> -7.7139982e+01 </wgt>
<wgt id='1657'> -7.7280875e+01 </wgt>
<wgt id='1658'> -7.7229792e+01 </wgt>
<wgt id='1659'> -7.7221041e+01 </wgt>
<wgt id='1660'> -7.7270384e+01 </wgt>
<wgt id='1661'> -7.7267714e+01 </wgt>
<wgt id='1662'> -7.7207258e+01 </wgt>
<wgt id='1663'> -7.7168864e+01 </wgt>
<wgt id='1664'> -7.7280054e+01 </wgt>
<wgt id='1665'> -7.7109029e+01 </wgt>
<wgt id='1666'> -7.7178277e+01 </wgt>
<wgt id='1667'> -7.7206553e+01 </wgt>
<wgt id='1668'> -7.7221551e+01 </wgt>
<wgt id='1669'> -7.7204317e+01 </wgt>
<wgt id='1670'> -7.4253531e+01 </wgt>
<wgt id='1671'> -8.0187258e+01 </wgt>
<wgt id='1672'> -7.7231541e+01 </wgt>
<wgt id='1673'> -8.0210126e+01 </wgt>
<wgt id='1674'> -7.6572812e+01 </wgt>
<wgt id='1675'> -7.7202943e+01 </wgt>
<wgt id='1676'> -7.8235284e+01 </wgt>
<wgt id='1677'> -7.7728019e+01 </wgt>
<wgt id='1678'> -7.8785941e+01 </wgt>
<wgt id='1679'> -7.7037877e+01 </wgt>
<wgt id='1680'> -7.7043740e+01 </wgt>
<wgt id='1681'> -7.7384405e+01 </wgt>
<wgt id='1682'> -7.7369992e+01 </wgt>
<wgt id='1683'> -7.6580268e+01 </wgt>
<wgt id='1684'> -7.6084933e+01 </wgt>
<wgt id='1685'> -7.7055148e+01 </wgt>
<wgt id='1686'> -7.6248890e+01 </wgt>
<wgt id='1687'> -7.5443111e+01 </wgt>
<wgt id='1688'> -7.7310724e+01 </wgt>
<wgt id='1689'> -7.7150580e+01 </wgt>
<wgt id='1690'> -7.6668811e+01 </wgt>
<wgt id='1691'> -7.7089302e+01 </wgt>
<wgt id='1692'> -7.7565108e+01 </wgt>
<wgt id='1693'> -7.7095778e+01 </wgt>
<wgt id='1694'> -7.7574964e+01 </wgt>
<wgt id='1695'> -7.7281001e+01 </wgt>
<wgt id='1696'> -7.7909933e+01 </wgt>
<wgt id='1697'> -7.7049596e+01 </wgt>
<wgt id='1698'> -7.7218875e+01 </wgt>
<wgt id='1699'> -7.6268676e+01 </wgt>
<wgt id='1700'> -7.7343229e+01 </wgt>
<wgt id='1701'> -7.6685878e+01 </wgt>
<wgt id='1702'> -7.7110288e+01 </wgt>
<wgt id='1703'> -7.4072050e+01 </wgt>
<wgt id='1704'> -7.9985968e+01 </wgt>
<wgt id='1705'> -7.7220864e+01 </wgt>
<wgt id='1706'> -7.8056541e+01 </wgt>
<wgt id='1707'> -7.9365467e+01 </wgt>
<wgt id='1708'> -7.7035994e+01 </wgt>
<wgt id='1709'> -7.7392568e+01 </wgt>
<wgt id='1710'> -7.7535079e+01 </wgt>
<wgt id='1711'> -7.7164511e+01 </wgt>
<wgt id='1712'> -7.6822591e+01 </wgt>
<wgt id='1713'> -7.8468659e+01 </wgt>
<wgt id='1714'> -7.5137299e+01 </wgt>
<wgt id='1715'> -7.7100549e+01 </wgt>
<wgt id='1716'> -7.8511633e+01 </wgt>
<wgt id='1717'> -7.7420256e+01 </wgt>
<wgt id='1718'> -7.8292085e+01 </wgt>
<wgt id='1719'> -7.7280116e+01 </wgt>
<wgt id='1720'> -7.8911759e+01 </wgt>
<wgt id='1721'> -7.7733974e+01 </wgt>
<wgt id='1722'> -7.7414024e+01 </wgt>
<wgt id='1723'> -7.7306845e+01 </wgt>
<wgt id='1724'> -7.6405262e+01 </wgt>
<wgt id='1725'> -7.6632686e+01 </wgt>
<wgt id='1726'> -7.6788791e+01 </wgt>
<wgt id='1727'> -7.7344629e+01 </wgt>
<wgt id='1728'> -7.7218141e+01 </wgt>
<wgt id='1729'> -7.7038879e+01 </wgt>
<wgt id='1730'> -7.7471038e+01 </wgt>
<wgt id='1731'> -7.6202260e+01 </wgt>
<wgt id='1732'> -7.6908361e+01 </wgt>
<wgt id='1733'> -7.6866650e+01 </wgt>
<wgt id='1734'> -7.7665147e+01 </wgt>
<wgt id='1735'> -7.7377862e+01 </wgt>
<wgt id='1736'> -7.4253531e+01 </wgt>
<wgt id='1737'> -8.0187258e+01 </wgt>
<wgt id='1738'> -5.2713850e+01 </wgt>
<wgt id='1739'> -5.2901238e+01 </wgt>
<wgt id='1740'> -5.2527478e+01 </wgt>
<wgt id='1741'> -5.2501792e+01 </wgt>
<wgt id='1742'> -5.2925791e+01 </wgt>
<wgt id='1743'> -5.2834996e+01 </wgt>
<wgt id='1744'> -5.2592900e+01 </wgt>
<wgt id='1745'> -5.2229783e+01 </wgt>
<wgt id='1746'> -5.3189347e+01 </wgt>
<wgt id='1747'> -5.3256540e+01 </wgt>
<wgt id='1748'> -5.2174273e+01 </wgt>
<wgt id='1749'> -5.2933222e+01 </wgt>
<wgt id='1750'> -5.2502162e+01 </wgt>
<wgt id='1751'> -5.2876415e+01 </wgt>
<wgt id='1752'> -5.2549442e+01 </wgt>
<wgt id='1753'> -5.2654734e+01 </wgt>
<wgt id='1754'> -5.2733907e+01 </wgt>
<wgt id='1755'> -5.2436851e+01 </wgt>
<wgt id='1756'> -5.2984321e+01 </wgt>
<wgt id='1757'> -5.3182559e+01 </wgt>
<wgt id='1758'> -5.2239704e+01 </wgt>
<wgt id='1759'> -5.1426581e+01 </wgt>
<wgt id='1760'> -5.4011822e+01 </wgt>
<wgt id='1761'> -5.6269649e+01 </wgt>
<wgt id='1762'> -4.9465544e+01 </wgt>
<wgt id='1763'> -5.2735416e+01 </wgt>
<wgt id='1764'> -5.2734853e+01 </wgt>
<wgt id='1765'> -5.2508926e+01 </wgt>
<wgt id='1766'> -5.2962420e+01 </wgt>
<wgt id='1767'> -5.2713850e+01 </wgt>
<wgt id='1768'> -5.9825720e+01 </wgt>
<wgt id='1769'> -4.5529232e+01 </wgt>
<wgt id='1770'> -7.5975873e+01 </wgt>
<wgt id='1771'> -7.1049457e+01 </wgt>
<wgt id='1772'> -5.1523795e+01 </wgt>
<wgt id='1773'> -5.2836023e+01 </wgt>
<wgt id='1774'> -5.2783011e+01 </wgt>
<wgt id='1775'> -5.2479186e+01 </wgt>
<wgt id='1776'> -5.2372315e+01 </wgt>
<wgt id='1777'> -5.2822909e+01 </wgt>
<wgt id='1778'> -5.2600725e+01 </wgt>
<wgt id='1779'> -5.2869876e+01 </wgt>
<wgt id='1780'> -4.9065837e+01 </wgt>
<wgt id='1781'> -4.6209612e+01 </wgt>
<wgt id='1782'> -4.6310062e+01 </wgt>
<wgt id='1783'> -4.6065918e+01 </wgt>
<wgt id='1784'> -4.6009932e+01 </wgt>
<wgt id='1785'> -4.6365838e+01 </wgt>
<wgt id='1786'> -4.6223330e+01 </wgt>
<wgt id='1787'> -4.6152114e+01 </wgt>
<wgt id='1788'> -4.5730197e+01 </wgt>
<wgt id='1789'> -4.6637031e+01 </wgt>
<wgt id='1790'> -4.6444782e+01 </wgt>
<wgt id='1791'> -4.5931101e+01 </wgt>
<wgt id='1792'> -4.6372840e+01 </wgt>
<wgt id='1793'> -4.6007370e+01 </wgt>
<wgt id='1794'> -4.6106784e+01 </wgt>
<wgt id='1795'> -4.6267500e+01 </wgt>
<wgt id='1796'> -4.6194994e+01 </wgt>
<wgt id='1797'> -4.6136018e+01 </wgt>
<wgt id='1798'> -4.6246588e+01 </wgt>
<wgt id='1799'> -4.6124408e+01 </wgt>
<wgt id='1800'> -4.6272092e+01 </wgt>
<wgt id='1801'> -4.6111613e+01 </wgt>
<wgt id='1802'> -4.6996775e+01 </wgt>
<wgt id='1803'> -4.5357537e+01 </wgt>
<wgt id='1804'> -4.8165963e+01 </wgt>
<wgt id='1805'> -4.4393373e+01 </wgt>
<wgt id='1806'> -5.0781813e+01 </wgt>
<wgt id='1807'> -4.2393436e+01 </wgt>
<wgt id='1808'> -4.9377954e+01 </wgt>
<wgt id='1809'> -4.3434989e+01 </wgt>
<wgt id='1810'> -4.6125422e+01 </wgt>
<wgt id='1811'> -5.2638795e+01 </wgt>
<wgt id='1812'> -4.0332581e+01 </wgt>
<wgt id='1813'> -6.4925077e+01 </wgt>
<wgt id='1814'> -5.7887991e+01 </wgt>
<wgt id='1815'> -5.1070990e+01 </wgt>
<wgt id='1816'> -4.7510067e+01 </wgt>
<wgt id='1817'> -4.6079228e+01 </wgt>
<wgt id='1818'> -4.4927622e+01 </wgt>
<wgt id='1819'> -4.8736585e+01 </wgt>
<wgt id='1820'> -5.2415115e+01 </wgt>
<wgt id='1821'> -5.0178895e+01 </wgt>
<wgt id='1822'> -4.2042019e+01 </wgt>
<wgt id='1823'> -4.6018781e+01 </wgt>
<wgt id='1824'> -7.3567053e+01 </wgt>
<wgt id='1825'> -7.3517083e+01 </wgt>
<wgt id='1826'> -7.3467811e+01 </wgt>
<wgt id='1827'> -7.3417715e+01 </wgt>
<wgt id='1828'> -7.3368177e+01 </wgt>
<wgt id='1829'> -7.3318131e+01 </wgt>
<wgt id='1830'> -7.3268589e+01 </wgt>
<wgt id='1831'> -7.3219025e+01 </wgt>
<wgt id='1832'> -7.3169447e+01 </wgt>
<wgt id='1833'> -7.3119475e+01 </wgt>
<wgt id='1834'> -7.3069526e+01 </wgt>
<wgt id='1835'> -7.3020429e+01 </wgt>
<wgt id='1836'> -7.2970543e+01 </wgt>
<wgt id='1837'> -7.2921023e+01 </wgt>
<wgt id='1838'> -7.2871235e+01 </wgt>
<wgt id='1839'> -7.2822201e+01 </wgt>
<wgt id='1840'> -7.2772135e+01 </wgt>
<wgt id='1841'> -7.2722733e+01 </wgt>
<wgt id='1842'> -7.2672916e+01 </wgt>
<wgt id='1843'> -7.2623581e+01 </wgt>
<wgt id='1844'> -7.2574183e+01 </wgt>
<wgt id='1845'> -7.2524852e+01 </wgt>
<wgt id='1846'> -7.2474992e+01 </wgt>
<wgt id='1847'> -7.2425759e+01 </wgt>
<wgt id='1848'> -7.2376376e+01 </wgt>
<wgt id='1849'> -7.2327110e+01 </wgt>
<wgt id='1850'> -7.2277416e+01 </wgt>
<wgt id='1851'> -7.2228109e+01 </wgt>
<wgt id='1852'> -7.2178472e+01 </wgt>
<wgt id='1853'> -7.2129643e+01 </wgt>
<wgt id='1854'> -7.2079954e+01 </wgt>
<wgt id='1855'> -7.7007321e+01 </wgt>
<wgt id='1856'> -7.7624306e+01 </wgt>
<wgt id='1857'> -7.7296037e+01 </wgt>
<wgt id='1858'> -7.6637746e+01 </wgt>
<wgt id='1859'> -7.7721353e+01 </wgt>
<wgt id='1860'> -7.7604781e+01 </wgt>
<wgt id='1861'> -7.6443282e+01 </wgt>
<wgt id='1862'> -7.6940359e+01 </wgt>
<wgt id='1863'> -7.7009857e+01 </wgt>
<wgt id='1864'> -7.7129150e+01 </wgt>
<wgt id='1865'> -7.6197794e+01 </wgt>
<wgt id='1866'> -7.7383939e+01 </wgt>
<wgt id='1867'> -7.6807805e+01 </wgt>
<wgt id='1868'> -7.6561175e+01 </wgt>
<wgt id='1869'> -7.7565762e+01 </wgt>
<wgt id='1870'> -7.8997236e+01 </wgt>
<wgt id='1871'> -7.6171212e+01 </wgt>
<wgt id='1872'> -7.6890837e+01 </wgt>
<wgt id='1873'> -7.8003056e+01 </wgt>
<wgt id='1874'> -7.5359085e+01 </wgt>
<wgt id='1875'> -7.5889772e+01 </wgt>
<wgt id='1876'> -7.7988381e+01 </wgt>
<wgt id='1877'> -7.5669631e+01 </wgt>
<wgt id='1878'> -7.7068296e+01 </wgt>
<wgt id='1879'> -7.7363460e+01 </wgt>
<wgt id='1880'> -7.7748736e+01 </wgt>
<wgt id='1881'> -7.7184181e+01 </wgt>
<wgt id='1882'> -7.6354629e+01 </wgt>
<wgt id='1883'> -7.6892693e+01 </wgt>
<wgt id='1884'> -7.6920473e+01 </wgt>
<wgt id='1885'> -7.6880322e+01 </wgt>
<wgt id='1886'> -7.5708737e+01 </wgt>
<wgt id='1887'> -7.6679419e+01 </wgt>
<wgt id='1888'> -7.6134686e+01 </wgt>
<wgt id='1889'> -7.6400847e+01 </wgt>
<wgt id='1890'> -7.8083671e+01 </wgt>
<wgt id='1891'> -7.7117591e+01 </wgt>
<wgt id='1892'> -7.6599072e+01 </wgt>
<wgt id='1893'> -7.6700971e+01 </wgt>
<wgt id='1894'> -7.7899314e+01 </wgt>
<wgt id='1895'> -7.7092146e+01 </wgt>
<wgt id='1896'> -7.7050231e+01 </wgt>
<wgt id='1897'> -7.7063889e+01 </wgt>
<wgt id='1898'> -7.6356654e+01 </wgt>
<wgt id='1899'> -7.6894349e+01 </wgt>
<wgt id='1900'> -7.7390717e+01 </wgt>
<wgt id='1901'> -7.7023705e+01 </wgt>
<wgt id='1902'> -7.6860056e+01 </wgt>
<wgt id='1903'> -7.7166479e+01 </wgt>
<wgt id='1904'> -7.7524357e+01 </wgt>
<wgt id='1905'> -7.7050950e+01 </wgt>
<wgt id='1906'> -7.7071176e+01 </wgt>
<wgt id='1907'> -7.6942385e+01 </wgt>
<wgt id='1908'> -7.6112882e+01 </wgt>
<wgt id='1909'> -7.7041282e+01 </wgt>
<wgt id='1910'> -7.7088460e+01 </wgt>
<wgt id='1911'> -7.7295251e+01 </wgt>
<wgt id='1912'> -7.7113343e+01 </wgt>
<wgt id='1913'> -7.6800403e+01 </wgt>
<wgt id='1914'> -7.6816580e+01 </wgt>
<wgt id='1915'> -7.6657879e+01 </wgt>
<wgt id='1916'> -7.7010324e+01 </wgt>
<wgt id='1917'> -7.7365892e+01 </wgt>
<wgt id='1918'> -7.7666440e+01 </wgt>
<wgt id='1919'> -7.6933464e+01 </wgt>
<wgt id='1920'> -7.6643773e+01 </wgt>
<wgt id='1921'> -7.7456290e+01 </wgt>
<wgt id='1922'> -7.7169783e+01 </wgt>
<wgt id='1923'> -7.6893258e+01 </wgt>
<wgt id='1924'> -7.7092911e+01 </wgt>
<wgt id='1925'> -7.6860533e+01 </wgt>
<wgt id='1926'> -7.6916367e+01 </wgt>
<wgt id='1927'> -7.7237596e+01 </wgt>
<wgt id='1928'> -7.6626400e+01 </wgt>
<wgt id='1929'> -7.6915592e+01 </wgt>
<wgt id='1930'> -7.7007000e+01 </wgt>
<wgt id='1931'> -7.6811556e+01 </wgt>
<wgt id='1932'> -7.6947348e+01 </wgt>
<wgt id='1933'> -7.7076527e+01 </wgt>
<wgt id='1934'> -7.6856537e+01 </wgt>
<wgt id='1935'> -7.7177650e+01 </wgt>
<wgt id='1936'> -7.6861443e+01 </wgt>
<wgt id='1937'> -7.6932065e+01 </wgt>
<wgt id='1938'> -7.6816496e+01 </wgt>
<wgt id='1939'> -7.7068067e+01 </wgt>
<wgt id='1940'> -7.7068931e+01 </wgt>
<wgt id='1941'> -7.7116166e+01 </wgt>
<wgt id='1942'> -7.6929504e+01 </wgt>
<wgt id='1943'> -7.7070231e+01 </wgt>
<wgt id='1944'> -7.7017928e+01 </wgt>
<wgt id='1945'> -7.7011499e+01 </wgt>
<wgt id='1946'> -7.7060324e+01 </wgt>
<wgt id='1947'> -7.7056698e+01 </wgt>
<wgt id='1948'> -7.6998004e+01 </wgt>
<wgt id='1949'> -7.6956748e+01 </wgt>
<wgt id='1950'> -7.7069194e+01 </wgt>
<wgt id='1951'> -7.6899620e+01 </wgt>
<wgt id='1952'> -7.6968478e+01 </wgt>
<wgt id='1953'> -7.6996523e+01 </wgt>
<wgt id='1954'> -7.7011798e+01 </wgt>
<wgt id='1955'> -7.6994195e+01 </wgt>
<wgt id='1956'> -7.7007170e+01 </wgt>
<wgt id='1957'> -7.7008150e+01 </wgt>
<wgt id='1958'> -7.7007485e+01 </wgt>
<wgt id='1959'> -7.7007512e+01 </wgt>
<wgt id='1960'> -7.7007789e+01 </wgt>
<wgt id='1961'> -7.7007388e+01 </wgt>
<wgt id='1962'> -7.7008324e+01 </wgt>
</rwgt>
</event>
<event npLO=" -1 " npNLO=" 1 ">
 7      1 +1.5146096e+02 2.66869940e+01 7.54677110e-03 1.37994110e-01
        2 -1    0    0  502    0 +0.0000000000e+00 +0.0000000000e+00 +7.4995015000e+02 7.4995015000e+02 0.0000000000e+00 0.0000e+00 9.0000e+00
       -2 -1    0    0    0  501 +0.0000000000e+00 +0.0000000000e+00 -1.1655550000e+01 1.1655550000e+01 0.0000000000e+00 0.0000e+00 9.0000e+00
       23  2    1    2    0    0 +4.1414636000e+01 -1.7587430000e+01 +5.3314121000e+02 5.4977230000e+02 1.2643397000e+02 0.0000e+00 0.0000e+00
       13  1    3    3    0    0 -2.8795854000e+01 -4.0650884000e+01 +3.2724679000e+02 3.3101685000e+02 0.0000000000e+00 0.0000e+00 9.0000e+00
      -13  1    3    3    0    0 +7.0210489000e+01 +2.3063454000e+01 +2.0589442000e+02 2.1875545000e+02 0.0000000000e+00 0.0000e+00 9.0000e+00
       22  1    1    2    0    0 -8.3336358000e+00 +1.4456405000e+01 +3.9496187000e+01 4.2876403000e+01 0.0000000000e+00 0.0000e+00 9.0000e+00
       21  1    1    2  502  501 -3.3081000000e+01 +3.1310253000e+00 +1.6565720000e+02 1.6895699000e+02 0.0000000000e+00 0.0000e+00 9.0000e+00
#aMCatNLO 1  0  0  6  1 0.24837165E+01 0.00000000E+00 -9  7  0 0.00000000E+00 0.00000000E+00 0.00000000E+00 0.00000000E+00 0.00000000E+00
<rwgt>
<wgt id='1001'> +1.5146000e+02 </wgt>
<wgt id='1002'> +1.5146000e+02 </wgt>
<wgt id='1003'> +1.4583000e+02 </wgt>
<wgt id='1004'> +1.5249000e+02 </wgt>
<wgt id='1005'> +1.5760000e+02 </wgt>
<wgt id='1006'> +1.5551000e+02 </wgt>
<wgt id='1007'> +1.5090000e+02 </wgt>
<wgt id='1008'> +1.5415000e+02 </wgt>
<wgt id='1009'> +1.5030000e+02 </wgt>
<wgt id='1010'> +1.4703000e+02 </wgt>
<wgt id='1011'> +1.5017000e+02 </wgt>
<wgt id='1012'> +1.4923000e+02 </wgt>
<wgt id='1013'> +1.4165000e+02 </wgt>
<wgt id='1014'> +1.5551000e+02 </wgt>
<wgt id='1015'> +1.5854000e+02 </wgt>
<wgt id='1016'> +1.5109000e+02 </wgt>
<wgt id='1017'> +1.5052000e+02 </wgt>
<wgt id='1018'> +1.4700000e+02 </wgt>
<wgt id='1019'> +1.4841000e+02 </wgt>
<wgt id='1020'> +1.4477000e+02 </wgt>
<wgt id='1021'> +1.5140000e+02 </wgt>
<wgt id='1022'> +1.4807000e+02 </wgt>
<wgt id='1023'> +1.5692000e+02 </wgt>
<wgt id='1024'> +1.4442000e+02 </wgt>
<wgt id='1025'> +1.5752000e+02 </wgt>
<wgt id='1026'> +1.5634000e+02 </wgt>
<wgt id='1027'> +1.5177000e+02 </wgt>
<wgt id='1028'> +1.5457000e+02 </wgt>
<wgt id='1029'> +1.4827000e+02 </wgt>
<wgt id='1030'> +1.5180000e+02 </wgt>
<wgt id='1031'> +1.5007000e+02 </wgt>
<wgt id='1032'> +1.5289000e+02 </wgt>
<wgt id='1033'> +1.5677000e+02 </wgt>
<wgt id='1034'> +1.4537000e+02 </wgt>
<wgt id='1035'> +1.5254000e+02 </wgt>
<wgt id='1036'> +1.5677000e+02 </wgt>
<wgt id='1037'> +1.5423000e+02 </wgt>
<wgt id='1038'> +1.5337000e+02 </wgt>
<wgt id='1039'> +1.4826000e+02 </wgt>
<wgt id='1040'> +1.4122000e+02 </wgt>
<wgt id='1041'> +1.5155000e+02 </wgt>
<wgt id='1042'> +1.5189000e+02 </wgt>
<wgt id='1043'> +1.5526000e+02 </wgt>
<wgt id='1044'> +1.5470000e+02 </wgt>
<wgt id='1045'> +1.5229000e+02 </wgt>
<wgt id='1046'> +1.5008000e+02 </wgt>
<wgt id='1047'> +1.5294000e+02 </wgt>
<wgt id='1048'> +1.5529000e+02 </wgt>
<wgt id='1049'> +1.4905000e+02 </wgt>
<wgt id='1050'> +1.5097000e+02 </wgt>
<wgt id='1051'> +1.5193000e+02 </wgt>
<wgt id='1052'> +1.5522000e+02 </wgt>
<wgt id='1053'> +1.5343000e+02 </wgt>
<wgt id='1054'> +1.5287000e+02 </wgt>
<wgt id='1055'> +1.5487000e+02 </wgt>
<wgt id='1056'> +1.5308000e+02 </wgt>
<wgt id='1057'> +1.5302000e+02 </wgt>
<wgt id='1058'> +1.4871000e+02 </wgt>
<wgt id='1059'> +1.5707000e+02 </wgt>
<wgt id='1060'> +1.5461000e+02 </wgt>
<wgt id='1061'> +1.5274000e+02 </wgt>
<wgt id='1062'> +1.5198000e+02 </wgt>
<wgt id='1063'> +1.5325000e+02 </wgt>
<wgt id='1064'> +1.5095000e+02 </wgt>
<wgt id='1065'> +1.6068000e+02 </wgt>
<wgt id='1066'> +1.3871000e+02 </wgt>
<wgt id='1067'> +1.5429000e+02 </wgt>
<wgt id='1068'> +1.5195000e+02 </wgt>
<wgt id='1069'> +1.4678000e+02 </wgt>
<wgt id='1070'> +1.5471000e+02 </wgt>
<wgt id='1071'> +1.5031000e+02 </wgt>
<wgt id='1072'> +1.4874000e+02 </wgt>
<wgt id='1073'> +1.5275000e+02 </wgt>
<wgt id='1074'> +1.4876000e+02 </wgt>
<wgt id='1075'> +1.4193000e+02 </wgt>
<wgt id='1076'> +1.5921000e+02 </wgt>
<wgt id='1077'> +1.5120000e+02 </wgt>
<wgt id='1078'> +1.4822000e+02 </wgt>
<wgt id='1079'> +1.4878000e+02 </wgt>
<wgt id='1080'> +1.5177000e+02 </wgt>
<wgt id='1081'> +1.4755000e+02 </wgt>
<wgt id='1082'> +1.5120000e+02 </wgt>
<wgt id='1083'> +1.5478000e+02 </wgt>
<wgt id='1084'> +1.5759000e+02 </wgt>
<wgt id='1085'> +1.4595000e+02 </wgt>
<wgt id='1086'> +1.5166000e+02 </wgt>
<wgt id='1087'> +1.5047000e+02 </wgt>
<wgt id='1088'> +1.4795000e+02 </wgt>
<wgt id='1089'> +1.5472000e+02 </wgt>
<wgt id='1090'> +1.5412000e+02 </wgt>
<wgt id='1091'> +1.4546000e+02 </wgt>
<wgt id='1092'> +1.5285000e+02 </wgt>
<wgt id='1093'> +1.5172000e+02 </wgt>
<wgt id='1094'> +1.4777000e+02 </wgt>
<wgt id='1095'> +1.4890000e+02 </wgt>
<wgt id='1096'> +1.5190000e+02 </wgt>
<wgt id='1097'> +1.4847000e+02 </wgt>
<wgt id='1098'> +1.5083000e+02 </wgt>
<wgt id='1099'> +1.5088000e+02 </wgt>
<wgt id='1100'> +1.5868000e+02 </wgt>
<wgt id='1101'> +1.5378000e+02 </wgt>
<wgt id='1102'> +1.4959000e+02 </wgt>
<wgt id='1103'> +1.4895000e+02 </wgt>
<wgt id='1104'> +1.5419000e+02 </wgt>
<wgt id='1105'> +1.5146096e+02 </wgt>
<wgt id='1106'> +6.9452765e+01 </wgt>
<wgt id='1107'> +8.3107020e+01 </wgt>
<wgt id='1108'> +8.3681997e+01 </wgt>
<wgt id='1109'> +7.6813544e+01 </wgt>
<wgt id='1110'> +9.1720394e+01 </wgt>
<wgt id='1111'> +6.6344766e+01 </wgt>
<wgt id='1112'> +6.0789495e+01 </wgt>
<wgt id='1113'> +7.2898651e+01 </wgt>
<wgt id='1114'> +8.3223716e+01 </wgt>
<wgt id='1115'> +8.6342682e+01 </wgt>
<wgt id='1116'> +8.3799218e+01 </wgt>
<wgt id='1117'> +8.2373322e+01 </wgt>
<wgt id='1118'> +8.0385579e+01 </wgt>
<wgt id='1119'> +8.1038778e+01 </wgt>
<wgt id='1120'> +8.3074427e+01 </wgt>
<wgt id='1121'> +8.4086835e+01 </wgt>
<wgt id='1122'> +8.3431555e+01 </wgt>
<wgt id='1123'> +8.1493638e+01 </wgt>
<wgt id='1124'> +7.9542050e+01 </wgt>
<wgt id='1125'> +8.3741127e+01 </wgt>
<wgt id='1126'> +8.1424967e+01 </wgt>
<wgt id='1127'> +8.2896387e+01 </wgt>
<wgt id='1128'> +8.5860624e+01 </wgt>
<wgt id='1129'> +8.3591259e+01 </wgt>
<wgt id='1130'> +8.2716335e+01 </wgt>
<wgt id='1131'> +8.4456641e+01 </wgt>
<wgt id='1132'> +8.2495742e+01 </wgt>
<wgt id='1133'> +8.4533386e+01 </wgt>
<wgt id='1134'> +8.1117305e+01 </wgt>
<wgt id='1135'> +8.0968279e+01 </wgt>
<wgt id='1136'> +8.2955858e+01 </wgt>
<wgt id='1137'> +8.4019579e+01 </wgt>
<wgt id='1138'> +8.2300011e+01 </wgt>
<wgt id='1139'> +8.4065989e+01 </wgt>
<wgt id='1140'> +8.6875811e+01 </wgt>
<wgt id='1141'> +8.3928499e+01 </wgt>
<wgt id='1142'> +8.3596346e+01 </wgt>
<wgt id='1143'> +8.4438817e+01 </wgt>
<wgt id='1144'> +8.5120041e+01 </wgt>
<wgt id='1145'> +8.4110310e+01 </wgt>
<wgt id='1146'> +8.1908938e+01 </wgt>
<wgt id='1147'> +8.4276615e+01 </wgt>
<wgt id='1148'> +8.2501834e+01 </wgt>
<wgt id='1149'> +8.2095651e+01 </wgt>
<wgt id='1150'> +8.3871732e+01 </wgt>
<wgt id='1151'> +8.1729821e+01 </wgt>
<wgt id='1152'> +8.2757549e+01 </wgt>
<wgt id='1153'> +8.3080176e+01 </wgt>
<wgt id='1154'> +8.4815145e+01 </wgt>
<wgt id='1155'> +8.4929523e+01 </wgt>
<wgt id='1156'> +8.4072083e+01 </wgt>
<wgt id='1157'> +8.3121756e+01 </wgt>
<wgt id='1158'> +8.3793498e+01 </wgt>
<wgt id='1159'> +8.2725329e+01 </wgt>
<wgt id='1160'> +8.4014727e+01 </wgt>
<wgt id='1161'> +8.5042026e+01 </wgt>
<wgt id='1162'> +8.6412133e+01 </wgt>
<wgt id='1163'> +8.5146639e+01 </wgt>
<wgt id='1164'> +8.2250920e+01 </wgt>
<wgt id='1165'> +8.1975471e+01 </wgt>
<wgt id='1166'> +8.1997186e+01 </wgt>
<wgt id='1167'> +8.5741829e+01 </wgt>
<wgt id='1168'> +8.2885245e+01 </wgt>
<wgt id='1169'> +8.7257654e+01 </wgt>
<wgt id='1170'> +8.2038593e+01 </wgt>
<wgt id='1171'> +8.3827738e+01 </wgt>
<wgt id='1172'> +8.3677333e+01 </wgt>
<wgt id='1173'> +8.4322188e+01 </wgt>
<wgt id='1174'> +8.4948063e+01 </wgt>
<wgt id='1175'> +8.2142407e+01 </wgt>
<wgt id='1176'> +8.2474610e+01 </wgt>
<wgt id='1177'> +8.2536243e+01 </wgt>
<wgt id='1178'> +8.5040110e+01 </wgt>
<wgt id='1179'> +8.4155232e+01 </wgt>
<wgt id='1180'> +8.7143889e+01 </wgt>
<wgt id='1181'> +8.3872114e+01 </wgt>
<wgt id='1182'> +8.3843380e+01 </wgt>
<wgt id='1183'> +8.4584543e+01 </wgt>
<wgt id='1184'> +8.1889037e+01 </wgt>
<wgt id='1185'> +8.2127801e+01 </wgt>
<wgt id='1186'> +8.3144719e+01 </wgt>
<wgt id='1187'> +7.9232929e+01 </wgt>
<wgt id='1188'> +8.1263953e+01 </wgt>
<wgt id='1189'> +8.2671121e+01 </wgt>
<wgt id='1190'> +8.7178743e+01 </wgt>
<wgt id='1191'> +7.9952742e+01 </wgt>
<wgt id='1192'> +8.4720141e+01 </wgt>
<wgt id='1193'> +8.3333723e+01 </wgt>
<wgt id='1194'> +8.4006406e+01 </wgt>
<wgt id='1195'> +8.1751008e+01 </wgt>
<wgt id='1196'> +8.2716335e+01 </wgt>
<wgt id='1197'> +8.1117479e+01 </wgt>
<wgt id='1198'> +8.2349977e+01 </wgt>
<wgt id='1199'> +8.2511618e+01 </wgt>
<wgt id='1200'> +8.4425070e+01 </wgt>
<wgt id='1201'> +8.2142266e+01 </wgt>
<wgt id='1202'> +8.2381521e+01 </wgt>
<wgt id='1203'> +7.8052329e+01 </wgt>
<wgt id='1204'> +8.2503647e+01 </wgt>
<wgt id='1205'> +8.3847631e+01 </wgt>
<wgt id='1206'> +8.2818125e+01 </wgt>
<wgt id='1207'> +8.1808914e+01 </wgt>
<wgt id='1208'> +8.2736007e+01 </wgt>
<wgt id='1209'> +7.9991727e+01 </wgt>
<wgt id='1210'> +8.4386149e+01 </wgt>
<wgt id='1211'> +8.3626779e+01 </wgt>
<wgt id='1212'> +8.3288859e+01 </wgt>
<wgt id='1213'> +8.4738800e+01 </wgt>
<wgt id='1214'> +8.2048789e+01 </wgt>
<wgt id='1215'> +8.0509184e+01 </wgt>
<wgt id='1216'> +8.1135034e+01 </wgt>
<wgt id='1217'> +8.1145896e+01 </wgt>
<wgt id='1218'> +8.1210288e+01 </wgt>
<wgt id='1219'> +8.1130935e+01 </wgt>
<wgt id='1220'> +8.1510642e+01 </wgt>
<wgt id='1221'> +8.1158718e+01 </wgt>
<wgt id='1222'> +8.1060660e+01 </wgt>
<wgt id='1223'> +8.1167119e+01 </wgt>
<wgt id='1224'> +8.0820988e+01 </wgt>
<wgt id='1225'> +8.1274310e+01 </wgt>
<wgt id='1226'> +8.0761431e+01 </wgt>
<wgt id='1227'> +8.1013853e+01 </wgt>
<wgt id='1228'> +8.1092298e+01 </wgt>
<wgt id='1229'> +8.1096570e+01 </wgt>
<wgt id='1230'> +8.1456358e+01 </wgt>
<wgt id='1231'> +8.0700113e+01 </wgt>
<wgt id='1232'> +8.0959582e+01 </wgt>
<wgt id='1233'> +8.1108722e+01 </wgt>
<wgt id='1234'> +8.1185755e+01 </wgt>
<wgt id='1235'> +8.1213546e+01 </wgt>
<wgt id='1236'> +8.0780904e+01 </wgt>
<wgt id='1237'> +8.1367227e+01 </wgt>
<wgt id='1238'> +8.1339253e+01 </wgt>
<wgt id='1239'> +8.1574638e+01 </wgt>
<wgt id='1240'> +8.1071748e+01 </wgt>
<wgt id='1241'> +8.0656585e+01 </wgt>
<wgt id='1242'> +8.0977599e+01 </wgt>
<wgt id='1243'> +8.1413451e+01 </wgt>
<wgt id='1244'> +8.1206686e+01 </wgt>
<wgt id='1245'> +8.1777197e+01 </wgt>
<wgt id='1246'> +8.0357334e+01 </wgt>
<wgt id='1247'> +8.0745139e+01 </wgt>
<wgt id='1248'> +8.1092906e+01 </wgt>
<wgt id='1249'> +8.1305524e+01 </wgt>
<wgt id='1250'> +8.1367071e+01 </wgt>
<wgt id='1251'> +8.1370874e+01 </wgt>
<wgt id='1252'> +8.1333634e+01 </wgt>
<wgt id='1253'> +8.0978322e+01 </wgt>
<wgt id='1254'> +8.1263618e+01 </wgt>
<wgt id='1255'> +8.1072466e+01 </wgt>
<wgt id='1256'> +8.1081403e+01 </wgt>
<wgt id='1257'> +8.1122563e+01 </wgt>
<wgt id='1258'> +8.1224802e+01 </wgt>
<wgt id='1259'> +8.0886912e+01 </wgt>
<wgt id='1260'> +8.1164324e+01 </wgt>
<wgt id='1261'> +8.1237638e+01 </wgt>
<wgt id='1262'> +8.1194755e+01 </wgt>
<wgt id='1263'> +8.1124142e+01 </wgt>
<wgt id='1264'> +8.1268304e+01 </wgt>
<wgt id='1265'> +8.1213796e+01 </wgt>
<wgt id='1266'> +8.1046635e+01 </wgt>
<wgt id='1267'> +8.1090792e+01 </wgt>
<wgt id='1268'> +8.1123277e+01 </wgt>
<wgt id='1269'> +8.0978507e+01 </wgt>
<wgt id='1270'> +8.1161667e+01 </wgt>
<wgt id='1271'> +8.1196637e+01 </wgt>
<wgt id='1272'> +8.0998168e+01 </wgt>
<wgt id='1273'> +8.1182771e+01 </wgt>
<wgt id='1274'> +8.1015216e+01 </wgt>
<wgt id='1275'> +8.1153090e+01 </wgt>
<wgt id='1276'> +8.1139953e+01 </wgt>
<wgt id='1277'> +8.1094816e+01 </wgt>
<wgt id='1278'> +8.1013692e+01 </wgt>
<wgt id='1279'> +8.1141748e+01 </wgt>
<wgt id='1280'> +8.1097587e+01 </wgt>
<wgt id='1281'> +8.1219055e+01 </wgt>
<wgt id='1282'> +8.1093736e+01 </wgt>
<wgt id='1283'> +8.1053941e+01 </wgt>
<wgt id='1284'> +8.1210576e+01 </wgt>
<wgt id='1285'> +8.1047057e+01 </wgt>
<wgt id='1286'> +8.1158582e+01 </wgt>
<wgt id='1287'> +8.1102974e+01 </wgt>
<wgt id='1288'> +8.1193246e+01 </wgt>
<wgt id='1289'> +8.1095023e+01 </wgt>
<wgt id='1290'> +8.1218347e+01 </wgt>
<wgt id='1291'> +8.1119621e+01 </wgt>
<wgt id='1292'> +8.1142921e+01 </wgt>
<wgt id='1293'> +8.1123746e+01 </wgt>
<wgt id='1294'> +8.1114141e+01 </wgt>
<wgt id='1295'> +8.1132803e+01 </wgt>
<wgt id='1296'> +8.1099275e+01 </wgt>
<wgt id='1297'> +8.1200260e+01 </wgt>
<wgt id='1298'> +8.1067981e+01 </wgt>
<wgt id='1299'> +8.1139217e+01 </wgt>
<wgt id='1300'> +8.1043505e+01 </wgt>
<wgt id='1301'> +8.1057897e+01 </wgt>
<wgt id='1302'> +8.1123821e+01 </wgt>
<wgt id='1303'> +8.1164502e+01 </wgt>
<wgt id='1304'> +8.1097955e+01 </wgt>
<wgt id='1305'> +8.1084643e+01 </wgt>
<wgt id='1306'> +8.1157680e+01 </wgt>
<wgt id='1307'> +8.1157184e+01 </wgt>
<wgt id='1308'> +8.1158232e+01 </wgt>
<wgt id='1309'> +8.1101557e+01 </wgt>
<wgt id='1310'> +8.1173159e+01 </wgt>
<wgt id='1311'> +8.1168523e+01 </wgt>
<wgt id='1312'> +8.1041105e+01 </wgt>
<wgt id='1313'> +8.1107103e+01 </wgt>
<wgt id='1314'> +8.1193548e+01 </wgt>
<wgt id='1315'> +8.1089374e+01 </wgt>
<wgt id='1316'> +8.1092730e+01 </wgt>
<wgt id='1317'> +7.8611259e+01 </wgt>
<wgt id='1318'> +8.4014611e+01 </wgt>
<wgt id='1319'> +8.1179427e+01 </wgt>
<wgt id='1320'> +7.9650771e+01 </wgt>
<wgt id='1321'> +7.9722158e+01 </wgt>
<wgt id='1322'> +8.0519649e+01 </wgt>
<wgt id='1323'> +8.0605232e+01 </wgt>
<wgt id='1324'> +8.0409896e+01 </wgt>
<wgt id='1325'> +7.8878249e+01 </wgt>
<wgt id='1326'> +8.0692397e+01 </wgt>
<wgt id='1327'> +7.9059118e+01 </wgt>
<wgt id='1328'> +8.1994359e+01 </wgt>
<wgt id='1329'> +7.8233546e+01 </wgt>
<wgt id='1330'> +8.1857405e+01 </wgt>
<wgt id='1331'> +8.1009517e+01 </wgt>
<wgt id='1332'> +7.9003538e+01 </wgt>
<wgt id='1333'> +7.8295231e+01 </wgt>
<wgt id='1334'> +7.9996844e+01 </wgt>
<wgt id='1335'> +8.0599410e+01 </wgt>
<wgt id='1336'> +7.8211577e+01 </wgt>
<wgt id='1337'> +8.1168957e+01 </wgt>
<wgt id='1338'> +7.7863970e+01 </wgt>
<wgt id='1339'> +8.0955124e+01 </wgt>
<wgt id='1340'> +7.8254488e+01 </wgt>
<wgt id='1341'> +7.9760607e+01 </wgt>
<wgt id='1342'> +7.9378366e+01 </wgt>
<wgt id='1343'> +7.9489940e+01 </wgt>
<wgt id='1344'> +7.9786170e+01 </wgt>
<wgt id='1345'> +7.9623572e+01 </wgt>
<wgt id='1346'> +7.9834744e+01 </wgt>
<wgt id='1347'> +7.9346329e+01 </wgt>
<wgt id='1348'> +7.9989079e+01 </wgt>
<wgt id='1349'> +7.8623302e+01 </wgt>
<wgt id='1350'> +7.9998701e+01 </wgt>
<wgt id='1351'> +7.9772588e+01 </wgt>
<wgt id='1352'> +7.9497117e+01 </wgt>
<wgt id='1353'> +7.9788135e+01 </wgt>
<wgt id='1354'> +7.9303933e+01 </wgt>
<wgt id='1355'> +7.8640546e+01 </wgt>
<wgt id='1356'> +8.0715830e+01 </wgt>
<wgt id='1357'> +7.9685941e+01 </wgt>
<wgt id='1358'> +7.9198211e+01 </wgt>
<wgt id='1359'> +7.8682455e+01 </wgt>
<wgt id='1360'> +7.9911939e+01 </wgt>
<wgt id='1361'> +8.1081614e+01 </wgt>
<wgt id='1362'> +7.8172239e+01 </wgt>
<wgt id='1363'> +8.0103427e+01 </wgt>
<wgt id='1364'> +7.8962218e+01 </wgt>
<wgt id='1365'> +7.9900497e+01 </wgt>
<wgt id='1366'> +7.9780138e+01 </wgt>
<wgt id='1367'> +7.9756656e+01 </wgt>
<wgt id='1368'> +7.9750082e+01 </wgt>
<wgt id='1369'> +8.0441401e+01 </wgt>
<wgt id='1370'> +7.9472296e+01 </wgt>
<wgt id='1371'> +7.9056144e+01 </wgt>
<wgt id='1372'> +7.9970204e+01 </wgt>
<wgt id='1373'> +7.9676206e+01 </wgt>
<wgt id='1374'> +7.9211508e+01 </wgt>
<wgt id='1375'> +7.7359766e+01 </wgt>
<wgt id='1376'> +8.1460680e+01 </wgt>
<wgt id='1377'> +7.6815790e+01 </wgt>
<wgt id='1378'> +8.2468193e+01 </wgt>
<wgt id='1379'> +8.4231038e+01 </wgt>
<wgt id='1380'> +8.1197047e+01 </wgt>
<wgt id='1381'> +8.7321814e+01 </wgt>
<wgt id='1382'> +7.0053109e+01 </wgt>
<wgt id='1383'> +7.4465372e+01 </wgt>
<wgt id='1384'> +8.1554341e+01 </wgt>
<wgt id='1385'> +7.7206840e+01 </wgt>
<wgt id='1386'> +7.7083409e+01 </wgt>
<wgt id='1387'> +7.7343169e+01 </wgt>
<wgt id='1388'> +7.6824588e+01 </wgt>
<wgt id='1389'> +7.7865908e+01 </wgt>
<wgt id='1390'> +7.7492634e+01 </wgt>
<wgt id='1391'> +7.6867552e+01 </wgt>
<wgt id='1392'> +7.7501588e+01 </wgt>
<wgt id='1393'> +7.7008061e+01 </wgt>
<wgt id='1394'> +7.7190015e+01 </wgt>
<wgt id='1395'> +7.7223511e+01 </wgt>
<wgt id='1396'> +7.7034429e+01 </wgt>
<wgt id='1397'> +7.7292836e+01 </wgt>
<wgt id='1398'> +7.6745548e+01 </wgt>
<wgt id='1399'> +7.7542071e+01 </wgt>
<wgt id='1400'> +7.7696800e+01 </wgt>
<wgt id='1401'> +7.6816719e+01 </wgt>
<wgt id='1402'> +7.7846651e+01 </wgt>
<wgt id='1403'> +7.6913106e+01 </wgt>
<wgt id='1404'> +7.5181399e+01 </wgt>
<wgt id='1405'> +7.8208216e+01 </wgt>
<wgt id='1406'> +7.6758287e+01 </wgt>
<wgt id='1407'> +7.7994677e+01 </wgt>
<wgt id='1408'> +7.7030190e+01 </wgt>
<wgt id='1409'> +7.7555048e+01 </wgt>
<wgt id='1410'> +7.7347282e+01 </wgt>
<wgt id='1411'> +7.6824659e+01 </wgt>
<wgt id='1412'> +7.7623047e+01 </wgt>
<wgt id='1413'> +7.6440257e+01 </wgt>
<wgt id='1414'> +7.6946113e+01 </wgt>
<wgt id='1415'> +7.7314421e+01 </wgt>
<wgt id='1416'> +7.7344843e+01 </wgt>
<wgt id='1417'> +7.7172071e+01 </wgt>
<wgt id='1418'> +7.6939366e+01 </wgt>
<wgt id='1419'> +7.7705957e+01 </wgt>
<wgt id='1420'> +7.7005302e+01 </wgt>
<wgt id='1421'> +7.7163781e+01 </wgt>
<wgt id='1422'> +7.7389544e+01 </wgt>
<wgt id='1423'> +7.7027877e+01 </wgt>
<wgt id='1424'> +7.7422379e+01 </wgt>
<wgt id='1425'> +7.6593862e+01 </wgt>
<wgt id='1426'> +7.7737368e+01 </wgt>
<wgt id='1427'> +7.7519413e+01 </wgt>
<wgt id='1428'> +7.6791370e+01 </wgt>
<wgt id='1429'> +7.6568021e+01 </wgt>
<wgt id='1430'> +7.7778673e+01 </wgt>
<wgt id='1431'> +7.7685910e+01 </wgt>
<wgt id='1432'> +7.7733296e+01 </wgt>
<wgt id='1433'> +7.7907796e+01 </wgt>
<wgt id='1434'> +7.7379463e+01 </wgt>
<wgt id='1435'> +7.7670137e+01 </wgt>
<wgt id='1436'> +7.2156474e+01 </wgt>
<wgt id='1437'> +7.2274366e+01 </wgt>
<wgt id='1438'> +7.1999771e+01 </wgt>
<wgt id='1439'> +7.2156820e+01 </wgt>
<wgt id='1440'> +7.2193107e+01 </wgt>
<wgt id='1441'> +7.2460717e+01 </wgt>
<wgt id='1442'> +7.2011112e+01 </wgt>
<wgt id='1443'> +7.2509292e+01 </wgt>
<wgt id='1444'> +7.1938199e+01 </wgt>
<wgt id='1445'> +7.1500303e+01 </wgt>
<wgt id='1446'> +7.2370824e+01 </wgt>
<wgt id='1447'> +7.2335156e+01 </wgt>
<wgt id='1448'> +7.1874317e+01 </wgt>
<wgt id='1449'> +7.2378482e+01 </wgt>
<wgt id='1450'> +7.2158353e+01 </wgt>
<wgt id='1451'> +7.2297002e+01 </wgt>
<wgt id='1452'> +7.1725519e+01 </wgt>
<wgt id='1453'> +7.2052697e+01 </wgt>
<wgt id='1454'> +7.2282499e+01 </wgt>
<wgt id='1455'> +7.1804899e+01 </wgt>
<wgt id='1456'> +7.1985496e+01 </wgt>
<wgt id='1457'> +7.2468995e+01 </wgt>
<wgt id='1458'> +7.2297759e+01 </wgt>
<wgt id='1459'> +7.2358557e+01 </wgt>
<wgt id='1460'> +7.2156243e+01 </wgt>
<wgt id='1461'> +7.2854211e+01 </wgt>
<wgt id='1462'> +7.2131389e+01 </wgt>
<wgt id='1463'> +7.2350094e+01 </wgt>
<wgt id='1464'> +7.1811604e+01 </wgt>
<wgt id='1465'> +8.5808375e+01 </wgt>
<wgt id='1466'> +7.6589700e+01 </wgt>
<wgt id='1467'> +7.6132176e+01 </wgt>
<wgt id='1468'> +7.5731770e+01 </wgt>
<wgt id='1469'> +7.7860825e+01 </wgt>
<wgt id='1470'> +7.6225669e+01 </wgt>
<wgt id='1471'> +7.6871906e+01 </wgt>
<wgt id='1472'> +7.5629381e+01 </wgt>
<wgt id='1473'> +7.7300557e+01 </wgt>
<wgt id='1474'> +7.6845173e+01 </wgt>
<wgt id='1475'> +7.5855404e+01 </wgt>
<wgt id='1476'> +7.5916034e+01 </wgt>
<wgt id='1477'> +7.5844161e+01 </wgt>
<wgt id='1478'> +7.6251095e+01 </wgt>
<wgt id='1479'> +7.7843361e+01 </wgt>
<wgt id='1480'> +7.6515225e+01 </wgt>
<wgt id='1481'> +7.6253584e+01 </wgt>
<wgt id='1482'> +7.6329604e+01 </wgt>
<wgt id='1483'> +7.6286022e+01 </wgt>
<wgt id='1484'> +7.7557169e+01 </wgt>
<wgt id='1485'> +7.6269284e+01 </wgt>
<wgt id='1486'> +7.6647799e+01 </wgt>
<wgt id='1487'> +7.6508944e+01 </wgt>
<wgt id='1488'> +7.5827610e+01 </wgt>
<wgt id='1489'> +7.6941309e+01 </wgt>
<wgt id='1490'> +7.6690461e+01 </wgt>
<wgt id='1491'> +7.7272258e+01 </wgt>
<wgt id='1492'> +7.6618092e+01 </wgt>
<wgt id='1493'> +7.6437585e+01 </wgt>
<wgt id='1494'> +7.6963979e+01 </wgt>
<wgt id='1495'> +7.6474955e+01 </wgt>
<wgt id='1496'> +7.6433708e+01 </wgt>
<wgt id='1497'> +7.6620239e+01 </wgt>
<wgt id='1498'> +7.6213433e+01 </wgt>
<wgt id='1499'> +7.6331979e+01 </wgt>
<wgt id='1500'> +7.6707533e+01 </wgt>
<wgt id='1501'> +7.6815960e+01 </wgt>
<wgt id='1502'> +7.6418625e+01 </wgt>
<wgt id='1503'> +7.6385654e+01 </wgt>
<wgt id='1504'> +7.6646719e+01 </wgt>
<wgt id='1505'> +7.6707959e+01 </wgt>
<wgt id='1506'> +7.6618802e+01 </wgt>
<wgt id='1507'> +7.6679289e+01 </wgt>
<wgt id='1508'> +7.6493491e+01 </wgt>
<wgt id='1509'> +7.6555210e+01 </wgt>
<wgt id='1510'> +7.6734712e+01 </wgt>
<wgt id='1511'> +7.6591843e+01 </wgt>
<wgt id='1512'> +7.6462550e+01 </wgt>
<wgt id='1513'> +7.6501389e+01 </wgt>
<wgt id='1514'> +7.6541318e+01 </wgt>
<wgt id='1515'> +7.6588772e+01 </wgt>
<wgt id='1516'> +7.6519840e+01 </wgt>
<wgt id='1517'> +7.6580024e+01 </wgt>
<wgt id='1518'> +7.6513834e+01 </wgt>
<wgt id='1519'> +7.6601729e+01 </wgt>
<wgt id='1520'> +7.6600799e+01 </wgt>
<wgt id='1521'> +7.6543239e+01 </wgt>
<wgt id='1522'> +7.6686423e+01 </wgt>
<wgt id='1523'> +7.6602019e+01 </wgt>
<wgt id='1524'> +7.6644763e+01 </wgt>
<wgt id='1525'> +7.6512759e+01 </wgt>
<wgt id='1526'> +7.6465098e+01 </wgt>
<wgt id='1527'> +7.6497260e+01 </wgt>
<wgt id='1528'> +7.6553999e+01 </wgt>
<wgt id='1529'> +7.6568239e+01 </wgt>
<wgt id='1530'> +7.6571679e+01 </wgt>
<wgt id='1531'> +7.6586734e+01 </wgt>
<wgt id='1532'> +7.6543648e+01 </wgt>
<wgt id='1533'> +7.6534323e+01 </wgt>
<wgt id='1534'> +7.6602377e+01 </wgt>
<wgt id='1535'> +7.6609089e+01 </wgt>
<wgt id='1536'> +7.6574230e+01 </wgt>
<wgt id='1537'> +7.6558624e+01 </wgt>
<wgt id='1538'> +7.6594215e+01 </wgt>
<wgt id='1539'> +7.6605891e+01 </wgt>
<wgt id='1540'> +7.6536610e+01 </wgt>
<wgt id='1541'> +7.6610974e+01 </wgt>
<wgt id='1542'> +7.6595097e+01 </wgt>
<wgt id='1543'> +7.6565589e+01 </wgt>
<wgt id='1544'> +7.6564042e+01 </wgt>
<wgt id='1545'> +7.6650475e+01 </wgt>
<wgt id='1546'> +7.6586044e+01 </wgt>
<wgt id='1547'> +7.6564383e+01 </wgt>
<wgt id='1548'> +7.6551925e+01 </wgt>
<wgt id='1549'> +7.6580783e+01 </wgt>
<wgt id='1550'> +7.6585954e+01 </wgt>
<wgt id='1551'> +7.6643908e+01 </wgt>
<wgt id='1552'> +7.6621370e+01 </wgt>
<wgt id='1553'> +7.6586014e+01 </wgt>
<wgt id='1554'> +7.6572004e+01 </wgt>
<wgt id='1555'> +7.6600569e+01 </wgt>
<wgt id='1556'> +7.6568104e+01 </wgt>
<wgt id='1557'> +7.6588001e+01 </wgt>
<wgt id='1558'> +7.6596495e+01 </wgt>
<wgt id='1559'> +7.6584408e+01 </wgt>
<wgt id='1560'> +7.6593890e+01 </wgt>
<wgt id='1561'> +7.6569590e+01 </wgt>
<wgt id='1562'> +7.6624917e+01 </wgt>
<wgt id='1563'> +7.6609467e+01 </wgt>
<wgt id='1564'> +7.6589617e+01 </wgt>
<wgt id='1565'> +7.6589232e+01 </wgt>
<wgt id='1566'> +7.6587358e+01 </wgt>
<wgt id='1567'> +7.4375028e+01 </wgt>
<wgt id='1568'> +7.8850292e+01 </wgt>
<wgt id='1569'> +8.2062690e+01 </wgt>
<wgt id='1570'> +8.2316226e+01 </wgt>
<wgt id='1571'> +8.1467032e+01 </wgt>
<wgt id='1572'> +8.2757600e+01 </wgt>
<wgt id='1573'> +8.3016296e+01 </wgt>
<wgt id='1574'> +8.2955318e+01 </wgt>
<wgt id='1575'> +8.2706553e+01 </wgt>
<wgt id='1576'> +8.2197357e+01 </wgt>
<wgt id='1577'> +8.2174961e+01 </wgt>
<wgt id='1578'> +8.2468838e+01 </wgt>
<wgt id='1579'> +8.2175647e+01 </wgt>
<wgt id='1580'> +8.2780180e+01 </wgt>
<wgt id='1581'> +8.1872836e+01 </wgt>
<wgt id='1582'> +8.2535017e+01 </wgt>
<wgt id='1583'> +8.1414267e+01 </wgt>
<wgt id='1584'> +8.1518592e+01 </wgt>
<wgt id='1585'> +8.1897746e+01 </wgt>
<wgt id='1586'> +8.2310865e+01 </wgt>
<wgt id='1587'> +8.2280283e+01 </wgt>
<wgt id='1588'> +8.0852028e+01 </wgt>
<wgt id='1589'> +8.2339944e+01 </wgt>
<wgt id='1590'> +8.2411961e+01 </wgt>
<wgt id='1591'> +8.1922197e+01 </wgt>
<wgt id='1592'> +8.2512059e+01 </wgt>
<wgt id='1593'> +8.2581139e+01 </wgt>
<wgt id='1594'> +8.2136850e+01 </wgt>
<wgt id='1595'> +8.1900303e+01 </wgt>
<wgt id='1596'> +8.2148587e+01 </wgt>
<wgt id='1597'> +8.2345145e+01 </wgt>
<wgt id='1598'> +8.2176214e+01 </wgt>
<wgt id='1599'> +8.2271457e+01 </wgt>
<wgt id='1600'> +8.2561577e+01 </wgt>
<wgt id='1601'> +8.2404096e+01 </wgt>
<wgt id='1602'> +8.2403545e+01 </wgt>
<wgt id='1603'> +8.2443483e+01 </wgt>
<wgt id='1604'> +8.1895499e+01 </wgt>
<wgt id='1605'> +8.2302480e+01 </wgt>
<wgt id='1606'> +8.1988800e+01 </wgt>
<wgt id='1607'> +8.2133210e+01 </wgt>
<wgt id='1608'> +8.2049724e+01 </wgt>
<wgt id='1609'> +8.1990398e+01 </wgt>
<wgt id='1610'> +8.2057421e+01 </wgt>
<wgt id='1611'> +8.2194568e+01 </wgt>
<wgt id='1612'> +8.1865325e+01 </wgt>
<wgt id='1613'> +8.2199924e+01 </wgt>
<wgt id='1614'> +8.1899959e+01 </wgt>
<wgt id='1615'> +8.2169873e+01 </wgt>
<wgt id='1616'> +8.2159237e+01 </wgt>
<wgt id='1617'> +8.2278940e+01 </wgt>
<wgt id='1618'> +8.1980307e+01 </wgt>
<wgt id='1619'> +8.2118475e+01 </wgt>
<wgt id='1620'> +8.2059707e+01 </wgt>
<wgt id='1621'> +8.1965518e+01 </wgt>
<wgt id='1622'> +8.2096400e+01 </wgt>
<wgt id='1623'> +8.2016928e+01 </wgt>
<wgt id='1624'> +8.2116791e+01 </wgt>
<wgt id='1625'> +8.2076617e+01 </wgt>
<wgt id='1626'> +8.2032388e+01 </wgt>
<wgt id='1627'> +8.1985578e+01 </wgt>
<wgt id='1628'> +8.2039577e+01 </wgt>
<wgt id='1629'> +8.2007164e+01 </wgt>
<wgt id='1630'> +8.2092177e+01 </wgt>
<wgt id='1631'> +8.2065474e+01 </wgt>
<wgt id='1632'> +8.2124830e+01 </wgt>
<wgt id='1633'> +8.1929524e+01 </wgt>
<wgt id='1634'> +8.2098117e+01 </wgt>
<wgt id='1635'> +8.2094574e+01 </wgt>
<wgt id='1636'> +8.2088584e+01 </wgt>
<wgt id='1637'> +8.2109600e+01 </wgt>
<wgt id='1638'> +8.2084327e+01 </wgt>
<wgt id='1639'> +8.2068180e+01 </wgt>
<wgt id='1640'> +8.2082044e+01 </wgt>
<wgt id='1641'> +8.2107999e+01 </wgt>
<wgt id='1642'> +8.2052594e+01 </wgt>
<wgt id='1643'> +8.2037911e+01 </wgt>
<wgt id='1644'> +8.2026730e+01 </wgt>
<wgt id='1645'> +8.2014259e+01 </wgt>
<wgt id='1646'> +8.2105369e+01 </wgt>
<wgt id='1647'> +8.2021719e+01 </wgt>
<wgt id='1648'> +8.2064869e+01 </wgt>
<wgt id='1649'> +8.2096232e+01 </wgt>
<wgt id='1650'> +8.2064763e+01 </wgt>
<wgt id='1651'> +8.2090296e+01 </wgt>
<wgt id='1652'> +8.2103607e+01 </wgt>
<wgt id='1653'> +8.2071653e+01 </wgt>
<wgt id='1654'> +8.2048910e+01 </wgt>
<wgt id='1655'> +8.2094693e+01 </wgt>
<wgt id='1656'> +8.2019392e+01 </wgt>
<wgt id='1657'> +8.2039567e+01 </wgt>
<wgt id='1658'> +8.2030368e+01 </wgt>
<wgt id='1659'> +8.2113195e+01 </wgt>
<wgt id='1660'> +8.2037657e+01 </wgt>
<wgt id='1661'> +8.2051075e+01 </wgt>
<wgt id='1662'> +8.2045856e+01 </wgt>
<wgt id='1663'> +8.2069318e+01 </wgt>
<wgt id='1664'> +8.2054841e+01 </wgt>
<wgt id='1665'> +8.2039523e+01 </wgt>
<wgt id='1666'> +8.2070655e+01 </wgt>
<wgt id='1667'> +8.2080594e+01 </wgt>
<wgt id='1668'> +8.2070507e+01 </wgt>
<wgt id='1669'> +8.2057698e+01 </wgt>
<wgt id='1670'> +7.9614700e+01 </wgt>
<wgt id='1671'> +8.4432154e+01 </wgt>
<wgt id='1672'> +7.6592771e+01 </wgt>
<wgt id='1673'> +7.5415633e+01 </wgt>
<wgt id='1674'> +7.5465273e+01 </wgt>
<wgt id='1675'> +7.6571528e+01 </wgt>
<wgt id='1676'> +7.8431721e+01 </wgt>
<wgt id='1677'> +7.6776845e+01 </wgt>
<wgt id='1678'> +7.6156808e+01 </wgt>
<wgt id='1679'> +7.6616136e+01 </wgt>
<wgt id='1680'> +7.6784425e+01 </wgt>
<wgt id='1681'> +7.6824479e+01 </wgt>
<wgt id='1682'> +7.6584972e+01 </wgt>
<wgt id='1683'> +7.5735614e+01 </wgt>
<wgt id='1684'> +7.7219879e+01 </wgt>
<wgt id='1685'> +7.6551542e+01 </wgt>
<wgt id='1686'> +7.6408334e+01 </wgt>
<wgt id='1687'> +7.6854264e+01 </wgt>
<wgt id='1688'> +7.6766701e+01 </wgt>
<wgt id='1689'> +7.6044282e+01 </wgt>
<wgt id='1690'> +7.6657731e+01 </wgt>
<wgt id='1691'> +7.6934864e+01 </wgt>
<wgt id='1692'> +7.7234130e+01 </wgt>
<wgt id='1693'> +7.6256079e+01 </wgt>
<wgt id='1694'> +7.6319027e+01 </wgt>
<wgt id='1695'> +7.6671391e+01 </wgt>
<wgt id='1696'> +7.6190469e+01 </wgt>
<wgt id='1697'> +7.6788618e+01 </wgt>
<wgt id='1698'> +7.6453495e+01 </wgt>
<wgt id='1699'> +7.6783545e+01 </wgt>
<wgt id='1700'> +7.6319425e+01 </wgt>
<wgt id='1701'> +7.6150680e+01 </wgt>
<wgt id='1702'> +7.6744642e+01 </wgt>
<wgt id='1703'> +7.4375028e+01 </wgt>
<wgt id='1704'> +7.8850292e+01 </wgt>
<wgt id='1705'> +8.2057792e+01 </wgt>
<wgt id='1706'> +8.2113458e+01 </wgt>
<wgt id='1707'> +8.2115197e+01 </wgt>
<wgt id='1708'> +8.2090793e+01 </wgt>
<wgt id='1709'> +7.9686312e+01 </wgt>
<wgt id='1710'> +8.1408978e+01 </wgt>
<wgt id='1711'> +8.2040284e+01 </wgt>
<wgt id='1712'> +8.1978541e+01 </wgt>
<wgt id='1713'> +8.1908142e+01 </wgt>
<wgt id='1714'> +8.1608627e+01 </wgt>
<wgt id='1715'> +8.1881909e+01 </wgt>
<wgt id='1716'> +8.2226206e+01 </wgt>
<wgt id='1717'> +8.2102512e+01 </wgt>
<wgt id='1718'> +8.2141494e+01 </wgt>
<wgt id='1719'> +8.2027306e+01 </wgt>
<wgt id='1720'> +8.1866965e+01 </wgt>
<wgt id='1721'> +8.1904730e+01 </wgt>
<wgt id='1722'> +8.1704500e+01 </wgt>
<wgt id='1723'> +8.2082397e+01 </wgt>
<wgt id='1724'> +8.2100653e+01 </wgt>
<wgt id='1725'> +8.1412384e+01 </wgt>
<wgt id='1726'> +8.2081446e+01 </wgt>
<wgt id='1727'> +8.2335688e+01 </wgt>
<wgt id='1728'> +8.2050327e+01 </wgt>
<wgt id='1729'> +8.2160462e+01 </wgt>
<wgt id='1730'> +8.2166010e+01 </wgt>
<wgt id='1731'> +8.2306725e+01 </wgt>
<wgt id='1732'> +8.2247739e+01 </wgt>
<wgt id='1733'> +8.2224606e+01 </wgt>
<wgt id='1734'> +8.2096710e+01 </wgt>
<wgt id='1735'> +8.2595289e+01 </wgt>
<wgt id='1736'> +7.9614700e+01 </wgt>
<wgt id='1737'> +8.4432154e+01 </wgt>
<wgt id='1738'> +8.6780671e+01 </wgt>
<wgt id='1739'> +8.6954557e+01 </wgt>
<wgt id='1740'> +8.6607952e+01 </wgt>
<wgt id='1741'> +8.6734612e+01 </wgt>
<wgt id='1742'> +8.6826453e+01 </wgt>
<wgt id='1743'> +8.6717218e+01 </wgt>
<wgt id='1744'> +8.6843171e+01 </wgt>
<wgt id='1745'> +8.6520498e+01 </wgt>
<wgt id='1746'> +8.7029605e+01 </wgt>
<wgt id='1747'> +8.7297668e+01 </wgt>
<wgt id='1748'> +8.6262594e+01 </wgt>
<wgt id='1749'> +8.7029841e+01 </wgt>
<wgt id='1750'> +8.6487708e+01 </wgt>
<wgt id='1751'> +8.6482916e+01 </wgt>
<wgt id='1752'> +8.7072284e+01 </wgt>
<wgt id='1753'> +8.6551495e+01 </wgt>
<wgt id='1754'> +8.7109602e+01 </wgt>
<wgt id='1755'> +8.6425756e+01 </wgt>
<wgt id='1756'> +8.6987772e+01 </wgt>
<wgt id='1757'> +8.6686920e+01 </wgt>
<wgt id='1758'> +8.6926254e+01 </wgt>
<wgt id='1759'> +8.7051392e+01 </wgt>
<wgt id='1760'> +8.6448678e+01 </wgt>
<wgt id='1761'> +8.6094130e+01 </wgt>
<wgt id='1762'> +8.7196490e+01 </wgt>
<wgt id='1763'> +8.7406459e+01 </wgt>
<wgt id='1764'> +8.6238504e+01 </wgt>
<wgt id='1765'> +8.6293789e+01 </wgt>
<wgt id='1766'> +8.7090895e+01 </wgt>
<wgt id='1767'> +8.6780671e+01 </wgt>
<wgt id='1768'> +8.7680531e+01 </wgt>
<wgt id='1769'> +8.5649099e+01 </wgt>
<wgt id='1770'> +8.7804927e+01 </wgt>
<wgt id='1771'> +8.6009206e+01 </wgt>
<wgt id='1772'> +8.7412975e+01 </wgt>
<wgt id='1773'> +8.6422441e+01 </wgt>
<wgt id='1774'> +8.6662478e+01 </wgt>
<wgt id='1775'> +8.6917398e+01 </wgt>
<wgt id='1776'> +8.6046689e+01 </wgt>
<wgt id='1777'> +8.7532623e+01 </wgt>
<wgt id='1778'> +8.6664298e+01 </wgt>
<wgt id='1779'> +8.7630128e+01 </wgt>
<wgt id='1780'> +8.7670749e+01 </wgt>
<wgt id='1781'> +9.1600304e+01 </wgt>
<wgt id='1782'> +9.1804285e+01 </wgt>
<wgt id='1783'> +9.1445151e+01 </wgt>
<wgt id='1784'> +9.1589614e+01 </wgt>
<wgt id='1785'> +9.1658901e+01 </wgt>
<wgt id='1786'> +9.1539129e+01 </wgt>
<wgt id='1787'> +9.1708502e+01 </wgt>
<wgt id='1788'> +9.1217663e+01 </wgt>
<wgt id='1789'> +9.2013288e+01 </wgt>
<wgt id='1790'> +9.2070745e+01 </wgt>
<wgt id='1791'> +9.1169199e+01 </wgt>
<wgt id='1792'> +9.1767549e+01 </wgt>
<wgt id='1793'> +9.1479075e+01 </wgt>
<wgt id='1794'> +9.1201820e+01 </wgt>
<wgt id='1795'> +9.2052630e+01 </wgt>
<wgt id='1796'> +9.1532114e+01 </wgt>
<wgt id='1797'> +9.1884438e+01 </wgt>
<wgt id='1798'> +9.1810537e+01 </wgt>
<wgt id='1799'> +9.1421220e+01 </wgt>
<wgt id='1800'> +9.1712934e+01 </wgt>
<wgt id='1801'> +9.1528558e+01 </wgt>
<wgt id='1802'> +9.0928110e+01 </wgt>
<wgt id='1803'> +9.2250787e+01 </wgt>
<wgt id='1804'> +9.2023252e+01 </wgt>
<wgt id='1805'> +9.1236851e+01 </wgt>
<wgt id='1806'> +9.1134675e+01 </wgt>
<wgt id='1807'> +9.1913389e+01 </wgt>
<wgt id='1808'> +9.1183293e+01 </wgt>
<wgt id='1809'> +9.1838293e+01 </wgt>
<wgt id='1810'> +9.1552345e+01 </wgt>
<wgt id='1811'> +9.2643787e+01 </wgt>
<wgt id='1812'> +9.0070772e+01 </wgt>
<wgt id='1813'> +9.2748507e+01 </wgt>
<wgt id='1814'> +9.0598451e+01 </wgt>
<wgt id='1815'> +9.2216244e+01 </wgt>
<wgt id='1816'> +9.0184580e+01 </wgt>
<wgt id='1817'> +9.1427404e+01 </wgt>
<wgt id='1818'> +9.1971148e+01 </wgt>
<wgt id='1819'> +8.9677580e+01 </wgt>
<wgt id='1820'> +9.2458645e+01 </wgt>
<wgt id='1821'> +9.0003503e+01 </wgt>
<wgt id='1822'> +9.3372588e+01 </wgt>
<wgt id='1823'> +9.0373078e+01 </wgt>
<wgt id='1824'> +7.8982262e+01 </wgt>
<wgt id='1825'> +7.8959691e+01 </wgt>
<wgt id='1826'> +7.8936951e+01 </wgt>
<wgt id='1827'> +7.8914259e+01 </wgt>
<wgt id='1828'> +7.8891635e+01 </wgt>
<wgt id='1829'> +7.8868894e+01 </wgt>
<wgt id='1830'> +7.8846250e+01 </wgt>
<wgt id='1831'> +7.8823607e+01 </wgt>
<wgt id='1832'> +7.8801026e+01 </wgt>
<wgt id='1833'> +7.8778304e+01 </wgt>
<wgt id='1834'> +7.8755599e+01 </wgt>
<wgt id='1835'> +7.8732958e+01 </wgt>
<wgt id='1836'> +7.8710214e+01 </wgt>
<wgt id='1837'> +7.8687740e+01 </wgt>
<wgt id='1838'> +7.8665026e+01 </wgt>
<wgt id='1839'> +7.8642410e+01 </wgt>
<wgt id='1840'> +7.8619759e+01 </wgt>
<wgt id='1841'> +7.8597059e+01 </wgt>
<wgt id='1842'> +7.8574437e+01 </wgt>
<wgt id='1843'> +7.8551821e+01 </wgt>
<wgt id='1844'> +7.8529173e+01 </wgt>
<wgt id='1845'> +7.8506463e+01 </wgt>
<wgt id='1846'> +7.8483951e+01 </wgt>
<wgt id='1847'> +7.8461321e+01 </wgt>
<wgt id='1848'> +7.8438634e+01 </wgt>
<wgt id='1849'> +7.8416016e+01 </wgt>
<wgt id='1850'> +7.8393333e+01 </wgt>
<wgt id='1851'> +7.8370798e+01 </wgt>
<wgt id='1852'> +7.8348190e+01 </wgt>
<wgt id='1853'> +7.8325495e+01 </wgt>
<wgt id='1854'> +7.8302988e+01 </wgt>
<wgt id='1855'> +8.1850287e+01 </wgt>
<wgt id='1856'> +8.2092370e+01 </wgt>
<wgt id='1857'> +8.1252130e+01 </wgt>
<wgt id='1858'> +8.2545383e+01 </wgt>
<wgt id='1859'> +8.2799970e+01 </wgt>
<wgt id='1860'> +8.2741817e+01 </wgt>
<wgt id='1861'> +8.2500980e+01 </wgt>
<wgt id='1862'> +8.1991355e+01 </wgt>
<wgt id='1863'> +8.1962258e+01 </wgt>
<wgt id='1864'> +8.2257370e+01 </wgt>
<wgt id='1865'> +8.1961353e+01 </wgt>
<wgt id='1866'> +8.2577934e+01 </wgt>
<wgt id='1867'> +8.1667272e+01 </wgt>
<wgt id='1868'> +8.2327711e+01 </wgt>
<wgt id='1869'> +8.1201796e+01 </wgt>
<wgt id='1870'> +8.1290630e+01 </wgt>
<wgt id='1871'> +8.1696508e+01 </wgt>
<wgt id='1872'> +8.2093115e+01 </wgt>
<wgt id='1873'> +8.2064545e+01 </wgt>
<wgt id='1874'> +8.0648559e+01 </wgt>
<wgt id='1875'> +8.2136118e+01 </wgt>
<wgt id='1876'> +8.2193885e+01 </wgt>
<wgt id='1877'> +8.1708102e+01 </wgt>
<wgt id='1878'> +8.2302645e+01 </wgt>
<wgt id='1879'> +8.2363072e+01 </wgt>
<wgt id='1880'> +8.1915570e+01 </wgt>
<wgt id='1881'> +8.1679863e+01 </wgt>
<wgt id='1882'> +8.1945185e+01 </wgt>
<wgt id='1883'> +8.2136299e+01 </wgt>
<wgt id='1884'> +8.1959364e+01 </wgt>
<wgt id='1885'> +8.2054567e+01 </wgt>
<wgt id='1886'> +8.2358204e+01 </wgt>
<wgt id='1887'> +8.2187980e+01 </wgt>
<wgt id='1888'> +8.2187323e+01 </wgt>
<wgt id='1889'> +8.2229785e+01 </wgt>
<wgt id='1890'> +8.1681309e+01 </wgt>
<wgt id='1891'> +8.2091245e+01 </wgt>
<wgt id='1892'> +8.1777019e+01 </wgt>
<wgt id='1893'> +8.1919252e+01 </wgt>
<wgt id='1894'> +8.1833547e+01 </wgt>
<wgt id='1895'> +8.1777801e+01 </wgt>
<wgt id='1896'> +8.1842611e+01 </wgt>
<wgt id='1897'> +8.1980166e+01 </wgt>
<wgt id='1898'> +8.1658565e+01 </wgt>
<wgt id='1899'> +8.1986557e+01 </wgt>
<wgt id='1900'> +8.1686824e+01 </wgt>
<wgt id='1901'> +8.1959914e+01 </wgt>
<wgt id='1902'> +8.1944614e+01 </wgt>
<wgt id='1903'> +8.2067615e+01 </wgt>
<wgt id='1904'> +8.1766863e+01 </wgt>
<wgt id='1905'> +8.1907335e+01 </wgt>
<wgt id='1906'> +8.1847351e+01 </wgt>
<wgt id='1907'> +8.1753671e+01 </wgt>
<wgt id='1908'> +8.1884196e+01 </wgt>
<wgt id='1909'> +8.1806272e+01 </wgt>
<wgt id='1910'> +8.1905082e+01 </wgt>
<wgt id='1911'> +8.1861107e+01 </wgt>
<wgt id='1912'> +8.1820246e+01 </wgt>
<wgt id='1913'> +8.1776216e+01 </wgt>
<wgt id='1914'> +8.1828996e+01 </wgt>
<wgt id='1915'> +8.1796868e+01 </wgt>
<wgt id='1916'> +8.1880188e+01 </wgt>
<wgt id='1917'> +8.1851544e+01 </wgt>
<wgt id='1918'> +8.1910724e+01 </wgt>
<wgt id='1919'> +8.1718484e+01 </wgt>
<wgt id='1920'> +8.1885675e+01 </wgt>
<wgt id='1921'> +8.1881369e+01 </wgt>
<wgt id='1922'> +8.1874377e+01 </wgt>
<wgt id='1923'> +8.1897585e+01 </wgt>
<wgt id='1924'> +8.1870232e+01 </wgt>
<wgt id='1925'> +8.1855339e+01 </wgt>
<wgt id='1926'> +8.1870795e+01 </wgt>
<wgt id='1927'> +8.1894736e+01 </wgt>
<wgt id='1928'> +8.1839145e+01 </wgt>
<wgt id='1929'> +8.1825694e+01 </wgt>
<wgt id='1930'> +8.1814711e+01 </wgt>
<wgt id='1931'> +8.1804392e+01 </wgt>
<wgt id='1932'> +8.1893444e+01 </wgt>
<wgt id='1933'> +8.1811769e+01 </wgt>
<wgt id='1934'> +8.1852305e+01 </wgt>
<wgt id='1935'> +8.1881819e+01 </wgt>
<wgt id='1936'> +8.1853824e+01 </wgt>
<wgt id='1937'> +8.1878028e+01 </wgt>
<wgt id='1938'> +8.1890553e+01 </wgt>
<wgt id='1939'> +8.1858377e+01 </wgt>
<wgt id='1940'> +8.1837610e+01 </wgt>
<wgt id='1941'> +8.1883538e+01 </wgt>
<wgt id='1942'> +8.1806866e+01 </wgt>
<wgt id='1943'> +8.1826619e+01 </wgt>
<wgt id='1944'> +8.1817058e+01 </wgt>
<wgt id='1945'> +8.1900317e+01 </wgt>
<wgt id='1946'> +8.1824384e+01 </wgt>
<wgt id='1947'> +8.1837739e+01 </wgt>
<wgt id='1948'> +8.1833980e+01 </wgt>
<wgt id='1949'> +8.1855342e+01 </wgt>
<wgt id='1950'> +8.1842666e+01 </wgt>
<wgt id='1951'> +8.1827682e+01 </wgt>
<wgt id='1952'> +8.1857927e+01 </wgt>
<wgt id='1953'> +8.1868214e+01 </wgt>
<wgt id='1954'> +8.1858079e+01 </wgt>
<wgt id='1955'> +8.1845452e+01 </wgt>
<wgt id='1956'> +8.1850159e+01 </wgt>
<wgt id='1957'> +8.1850961e+01 </wgt>
<wgt id='1958'> +8.1850411e+01 </wgt>
<wgt id='1959'> +8.1850440e+01 </wgt>
<wgt id='1960'> +8.1850666e+01 </wgt>
<wgt id='1961'> +8.1850342e+01 </wgt>
<wgt id='1962'> +8.1851052e+01 </wgt>
</rwgt>
</event>
<event npLO=" -1 " npNLO=" 1 ">
 8      1 +1.5146096e+02 5.87695990e+01 7.54677110e-03 1.18530320e-01
       21 -1    0    0  503  502 +0.0000000000e+00 +0.0000000000e+00 +1.0913632000e+02 1.0913632000e+02 0.0000000000e+00 0.0000e+00 9.0000e+00
        2 -1    0    0  502    0 +0.0000000000e+00 +0.0000000000e+00 -4.5094693000e+02 4.5094693000e+02 0.0000000000e+00 0.0000e+00 9.0000e+00
       23  2    1    2    0    0 +2.7430418000e+01 +2.5613226000e+01 -1.7852641000e+02 2.1882596000e+02 1.2084973000e+02 0.0000e+00 0.0000e+00
       11  1    3    3    0    0 +4.3441102000e+01 +6.4536423000e+01 -1.2985336000e+02 1.5137362000e+02 0.0000000000e+00 0.0000e+00 9.0000e+00
      -11  1    3    3    0    0 -1.3758433000e+01 -1.1916848000e+01 -1.1801464000e+01 2.1692863000e+01 0.0000000000e+00 0.0000e+00 9.0000e+00
       22  1    3    3    0    0 -2.2522514000e+00 -2.7006349000e+01 -3.6871589000e+01 4.5759475000e+01 0.0000000000e+00 0.0000e+00 9.0000e+00
        2  1    1    2  501    0 +6.9915030000e+01 -3.4490223000e+01 -2.1639602000e+02 2.3001070000e+02 0.0000000000e+00 0.0000e+00 9.0000e+00
       21  1    1    2  503  501 -9.7345447000e+01 +8.8769964000e+00 +5.3111826000e+01 1.1124659000e+02 0.0000000000e+00 0.0000e+00 9.0000e+00
#aMCatNLO 2  0  0  1  6 0.38623930E+02 0.00000000E+00 -9  7  0 0.00000000E+00 0.00000000E+00 0.00000000E+00 0.00000000E+00 0.00000000E+00
<rwgt>
<wgt id='1001'> +1.5146000e+02 </wgt>
<wgt id='1002'> +1.5146000e+02 </wgt>
<wgt id='1003'> +1.4699000e+02 </wgt>
<wgt id='1004'> +1.5148000e+02 </wgt>
<wgt id='1005'> +1.5269000e+02 </wgt>
<wgt id='1006'> +1.5288000e+02 </wgt>
<wgt id='1007'> +1.4318000e+02 </wgt>
<wgt id='1008'> +1.5229000e+02 </wgt>
<wgt id='1009'> +1.5165000e+02 </wgt>
<wgt id='1010'> +1.4872000e+02 </wgt>
<wgt id='1011'> +1.5100000e+02 </wgt>
<wgt id='1012'> +1.4917000e+02 </wgt>
<wgt id='1013'> +1.5024000e+02 </wgt>
<wgt id='1014'> +1.5283000e+02 </wgt>
<wgt id='1015'> +1.5364000e+02 </wgt>
<wgt id='1016'> +1.4952000e+02 </wgt>
<wgt id='1017'> +1.5127000e+02 </wgt>
<wgt id='1018'> +1.5091000e+02 </wgt>
<wgt id='1019'> +1.4941000e+02 </wgt>
<wgt id='1020'> +1.4740000e+02 </wgt>
<wgt id='1021'> +1.5246000e+02 </wgt>
<wgt id='1022'> +1.4894000e+02 </wgt>
<wgt id='1023'> +1.5420000e+02 </wgt>
<wgt id='1024'> +1.4953000e+02 </wgt>
<wgt id='1025'> +1.5922000e+02 </wgt>
<wgt id='1026'> +1.5113000e+02 </wgt>
<wgt id='1027'> +1.5219000e+02 </wgt>
<wgt id='1028'> +1.5043000e+02 </wgt>
<wgt id='1029'> +1.4775000e+02 </wgt>
<wgt id='1030'> +1.5144000e+02 </wgt>
<wgt id='1031'> +1.4852000e+02 </wgt>
<wgt id='1032'> +1.5170000e+02 </wgt>
<wgt id='1033'> +1.5019000e+02 </wgt>
<wgt id='1034'> +1.5104000e+02 </wgt>
<wgt id='1035'> +1.5165000e+02 </wgt>
<wgt id='1036'> +1.5382000e+02 </wgt>
<wgt id='1037'> +1.5211000e+02 </wgt>
<wgt id='1038'> +1.5383000e+02 </wgt>
<wgt id='1039'> +1.4939000e+02 </wgt>
<wgt id='1040'> +1.5051000e+02 </wgt>
<wgt id='1041'> +1.4939000e+02 </wgt>
<wgt id='1042'> +1.5280000e+02 </wgt>
<wgt id='1043'> +1.5492000e+02 </wgt>
<wgt id='1044'> +1.5382000e+02 </wgt>
<wgt id='1045'> +1.5286000e+02 </wgt>
<wgt id='1046'> +1.5024000e+02 </wgt>
<wgt id='1047'> +1.5321000e+02 </wgt>
<wgt id='1048'> +1.5367000e+02 </wgt>
<wgt id='1049'> +1.4974000e+02 </wgt>
<wgt id='1050'> +1.5086000e+02 </wgt>
<wgt id='1051'> +1.5035000e+02 </wgt>
<wgt id='1052'> +1.5271000e+02 </wgt>
<wgt id='1053'> +1.5175000e+02 </wgt>
<wgt id='1054'> +1.5023000e+02 </wgt>
<wgt id='1055'> +1.5425000e+02 </wgt>
<wgt id='1056'> +1.5351000e+02 </wgt>
<wgt id='1057'> +1.5270000e+02 </wgt>
<wgt id='1058'> +1.4981000e+02 </wgt>
<wgt id='1059'> +1.5563000e+02 </wgt>
<wgt id='1060'> +1.5226000e+02 </wgt>
<wgt id='1061'> +1.5084000e+02 </wgt>
<wgt id='1062'> +1.5147000e+02 </wgt>
<wgt id='1063'> +1.5164000e+02 </wgt>
<wgt id='1064'> +1.5054000e+02 </wgt>
<wgt id='1065'> +1.5657000e+02 </wgt>
<wgt id='1066'> +1.4479000e+02 </wgt>
<wgt id='1067'> +1.5430000e+02 </wgt>
<wgt id='1068'> +1.4998000e+02 </wgt>
<wgt id='1069'> +1.5483000e+02 </wgt>
<wgt id='1070'> +1.5184000e+02 </wgt>
<wgt id='1071'> +1.4951000e+02 </wgt>
<wgt id='1072'> +1.4996000e+02 </wgt>
<wgt id='1073'> +1.5522000e+02 </wgt>
<wgt id='1074'> +1.5150000e+02 </wgt>
<wgt id='1075'> +1.4735000e+02 </wgt>
<wgt id='1076'> +1.5425000e+02 </wgt>
<wgt id='1077'> +1.5216000e+02 </wgt>
<wgt id='1078'> +1.5135000e+02 </wgt>
<wgt id='1079'> +1.5223000e+02 </wgt>
<wgt id='1080'> +1.5516000e+02 </wgt>
<wgt id='1081'> +1.5113000e+02 </wgt>
<wgt id='1082'> +1.5076000e+02 </wgt>
<wgt id='1083'> +1.5457000e+02 </wgt>
<wgt id='1084'> +1.5221000e+02 </wgt>
<wgt id='1085'> +1.4981000e+02 </wgt>
<wgt id='1086'> +1.5243000e+02 </wgt>
<wgt id='1087'> +1.4802000e+02 </wgt>
<wgt id='1088'> +1.4995000e+02 </wgt>
<wgt id='1089'> +1.5164000e+02 </wgt>
<wgt id='1090'> +1.5363000e+02 </wgt>
<wgt id='1091'> +1.5277000e+02 </wgt>
<wgt id='1092'> +1.5099000e+02 </wgt>
<wgt id='1093'> +1.4925000e+02 </wgt>
<wgt id='1094'> +1.5239000e+02 </wgt>
<wgt id='1095'> +1.4979000e+02 </wgt>
<wgt id='1096'> +1.5367000e+02 </wgt>
<wgt id='1097'> +1.4529000e+02 </wgt>
<wgt id='1098'> +1.5408000e+02 </wgt>
<wgt id='1099'> +1.5170000e+02 </wgt>
<wgt id='1100'> +1.5637000e+02 </wgt>
<wgt id='1101'> +1.5360000e+02 </wgt>
<wgt id='1102'> +1.4609000e+02 </wgt>
<wgt id='1103'> +1.4887000e+02 </wgt>
<wgt id='1104'> +1.5367000e+02 </wgt>
<wgt id='1105'> +1.5146096e+02 </wgt>
<wgt id='1106'> +6.0680797e+01 </wgt>
<wgt id='1107'> +9.7286019e+01 </wgt>
<wgt id='1108'> +7.5680865e+01 </wgt>
<wgt id='1109'> +6.0641043e+01 </wgt>
<wgt id='1110'> +9.7222283e+01 </wgt>
<wgt id='1111'> +7.5019224e+01 </wgt>
<wgt id='1112'> +6.0110887e+01 </wgt>
<wgt id='1113'> +9.6372316e+01 </wgt>
<wgt id='1114'> +7.7597649e+01 </wgt>
<wgt id='1115'> +7.7316520e+01 </wgt>
<wgt id='1116'> +7.7737514e+01 </wgt>
<wgt id='1117'> +7.6960943e+01 </wgt>
<wgt id='1118'> +7.6646960e+01 </wgt>
<wgt id='1119'> +7.8041611e+01 </wgt>
<wgt id='1120'> +7.7300150e+01 </wgt>
<wgt id='1121'> +7.8767729e+01 </wgt>
<wgt id='1122'> +7.7737172e+01 </wgt>
<wgt id='1123'> +7.8403204e+01 </wgt>
<wgt id='1124'> +7.6625161e+01 </wgt>
<wgt id='1125'> +7.7334463e+01 </wgt>
<wgt id='1126'> +7.6317682e+01 </wgt>
<wgt id='1127'> +7.7266280e+01 </wgt>
<wgt id='1128'> +7.7976968e+01 </wgt>
<wgt id='1129'> +7.9788042e+01 </wgt>
<wgt id='1130'> +7.9322454e+01 </wgt>
<wgt id='1131'> +7.8513022e+01 </wgt>
<wgt id='1132'> +7.6867331e+01 </wgt>
<wgt id='1133'> +7.8949840e+01 </wgt>
<wgt id='1134'> +7.7860276e+01 </wgt>
<wgt id='1135'> +7.7342354e+01 </wgt>
<wgt id='1136'> +7.7843718e+01 </wgt>
<wgt id='1137'> +7.8290994e+01 </wgt>
<wgt id='1138'> +7.6734497e+01 </wgt>
<wgt id='1139'> +7.7804684e+01 </wgt>
<wgt id='1140'> +7.9479471e+01 </wgt>
<wgt id='1141'> +7.6459362e+01 </wgt>
<wgt id='1142'> +7.7405957e+01 </wgt>
<wgt id='1143'> +7.9375016e+01 </wgt>
<wgt id='1144'> +7.8508059e+01 </wgt>
<wgt id='1145'> +7.7856401e+01 </wgt>
<wgt id='1146'> +7.5642012e+01 </wgt>
<wgt id='1147'> +7.7443903e+01 </wgt>
<wgt id='1148'> +7.6222680e+01 </wgt>
<wgt id='1149'> +7.7653286e+01 </wgt>
<wgt id='1150'> +7.7295241e+01 </wgt>
<wgt id='1151'> +7.7520271e+01 </wgt>
<wgt id='1152'> +7.7012154e+01 </wgt>
<wgt id='1153'> +7.8320527e+01 </wgt>
<wgt id='1154'> +7.7766744e+01 </wgt>
<wgt id='1155'> +7.8482808e+01 </wgt>
<wgt id='1156'> +7.6295171e+01 </wgt>
<wgt id='1157'> +7.6884045e+01 </wgt>
<wgt id='1158'> +7.7413463e+01 </wgt>
<wgt id='1159'> +7.8190773e+01 </wgt>
<wgt id='1160'> +7.8204315e+01 </wgt>
<wgt id='1161'> +7.5677576e+01 </wgt>
<wgt id='1162'> +7.7834290e+01 </wgt>
<wgt id='1163'> +7.9116463e+01 </wgt>
<wgt id='1164'> +7.7843991e+01 </wgt>
<wgt id='1165'> +7.7386804e+01 </wgt>
<wgt id='1166'> +7.7272471e+01 </wgt>
<wgt id='1167'> +7.7717821e+01 </wgt>
<wgt id='1168'> +7.7416646e+01 </wgt>
<wgt id='1169'> +7.8487241e+01 </wgt>
<wgt id='1170'> +7.7243380e+01 </wgt>
<wgt id='1171'> +7.7839528e+01 </wgt>
<wgt id='1172'> +7.7909898e+01 </wgt>
<wgt id='1173'> +7.9884493e+01 </wgt>
<wgt id='1174'> +7.8686504e+01 </wgt>
<wgt id='1175'> +7.6916157e+01 </wgt>
<wgt id='1176'> +7.7175081e+01 </wgt>
<wgt id='1177'> +7.7096641e+01 </wgt>
<wgt id='1178'> +7.7282478e+01 </wgt>
<wgt id='1179'> +7.8058149e+01 </wgt>
<wgt id='1180'> +7.8492304e+01 </wgt>
<wgt id='1181'> +7.7037628e+01 </wgt>
<wgt id='1182'> +7.8555683e+01 </wgt>
<wgt id='1183'> +7.8086068e+01 </wgt>
<wgt id='1184'> +7.6070117e+01 </wgt>
<wgt id='1185'> +7.8764862e+01 </wgt>
<wgt id='1186'> +8.0899026e+01 </wgt>
<wgt id='1187'> +7.6371684e+01 </wgt>
<wgt id='1188'> +7.7757011e+01 </wgt>
<wgt id='1189'> +7.7343390e+01 </wgt>
<wgt id='1190'> +7.9844025e+01 </wgt>
<wgt id='1191'> +7.6157653e+01 </wgt>
<wgt id='1192'> +7.8516991e+01 </wgt>
<wgt id='1193'> +7.7892203e+01 </wgt>
<wgt id='1194'> +7.6784472e+01 </wgt>
<wgt id='1195'> +7.5484484e+01 </wgt>
<wgt id='1196'> +7.9322454e+01 </wgt>
<wgt id='1197'> +7.5101094e+01 </wgt>
<wgt id='1198'> +7.7387844e+01 </wgt>
<wgt id='1199'> +7.7433997e+01 </wgt>
<wgt id='1200'> +7.6103354e+01 </wgt>
<wgt id='1201'> +7.7020363e+01 </wgt>
<wgt id='1202'> +7.5921085e+01 </wgt>
<wgt id='1203'> +7.5856551e+01 </wgt>
<wgt id='1204'> +7.6636363e+01 </wgt>
<wgt id='1205'> +7.8342042e+01 </wgt>
<wgt id='1206'> +7.8330501e+01 </wgt>
<wgt id='1207'> +7.7831624e+01 </wgt>
<wgt id='1208'> +7.7364167e+01 </wgt>
<wgt id='1209'> +7.5931283e+01 </wgt>
<wgt id='1210'> +7.7840096e+01 </wgt>
<wgt id='1211'> +7.5806526e+01 </wgt>
<wgt id='1212'> +7.7852873e+01 </wgt>
<wgt id='1213'> +7.7130802e+01 </wgt>
<wgt id='1214'> +7.8259749e+01 </wgt>
<wgt id='1215'> +7.5486608e+01 </wgt>
<wgt id='1216'> +7.7562374e+01 </wgt>
<wgt id='1217'> +7.7711891e+01 </wgt>
<wgt id='1218'> +7.7487646e+01 </wgt>
<wgt id='1219'> +7.7727687e+01 </wgt>
<wgt id='1220'> +7.7629340e+01 </wgt>
<wgt id='1221'> +7.7788710e+01 </wgt>
<wgt id='1222'> +7.7641451e+01 </wgt>
<wgt id='1223'> +7.7772149e+01 </wgt>
<wgt id='1224'> +7.7423181e+01 </wgt>
<wgt id='1225'> +7.7744146e+01 </wgt>
<wgt id='1226'> +7.7400595e+01 </wgt>
<wgt id='1227'> +7.7558866e+01 </wgt>
<wgt id='1228'> +7.7722111e+01 </wgt>
<wgt id='1229'> +7.7294171e+01 </wgt>
<wgt id='1230'> +7.7875324e+01 </wgt>
<wgt id='1231'> +7.7556068e+01 </wgt>
<wgt id='1232'> +7.7556789e+01 </wgt>
<wgt id='1233'> +7.7744222e+01 </wgt>
<wgt id='1234'> +7.7614367e+01 </wgt>
<wgt id='1235'> +7.7288587e+01 </wgt>
<wgt id='1236'> +7.7296358e+01 </wgt>
<wgt id='1237'> +7.7608165e+01 </wgt>
<wgt id='1238'> +7.7621409e+01 </wgt>
<wgt id='1239'> +7.7718151e+01 </wgt>
<wgt id='1240'> +7.7610417e+01 </wgt>
<wgt id='1241'> +7.7337473e+01 </wgt>
<wgt id='1242'> +7.7515559e+01 </wgt>
<wgt id='1243'> +7.7511712e+01 </wgt>
<wgt id='1244'> +7.7633522e+01 </wgt>
<wgt id='1245'> +7.7926830e+01 </wgt>
<wgt id='1246'> +7.7326935e+01 </wgt>
<wgt id='1247'> +7.7189461e+01 </wgt>
<wgt id='1248'> +7.7656741e+01 </wgt>
<wgt id='1249'> +7.7584718e+01 </wgt>
<wgt id='1250'> +7.7522244e+01 </wgt>
<wgt id='1251'> +7.7653250e+01 </wgt>
<wgt id='1252'> +7.7654586e+01 </wgt>
<wgt id='1253'> +7.7437105e+01 </wgt>
<wgt id='1254'> +7.7601059e+01 </wgt>
<wgt id='1255'> +7.7584517e+01 </wgt>
<wgt id='1256'> +7.7503058e+01 </wgt>
<wgt id='1257'> +7.7561593e+01 </wgt>
<wgt id='1258'> +7.7646796e+01 </wgt>
<wgt id='1259'> +7.7512789e+01 </wgt>
<wgt id='1260'> +7.7597949e+01 </wgt>
<wgt id='1261'> +7.7637353e+01 </wgt>
<wgt id='1262'> +7.7539935e+01 </wgt>
<wgt id='1263'> +7.7547458e+01 </wgt>
<wgt id='1264'> +7.7664883e+01 </wgt>
<wgt id='1265'> +7.7628574e+01 </wgt>
<wgt id='1266'> +7.7493182e+01 </wgt>
<wgt id='1267'> +7.7565542e+01 </wgt>
<wgt id='1268'> +7.7545959e+01 </wgt>
<wgt id='1269'> +7.7419771e+01 </wgt>
<wgt id='1270'> +7.7528425e+01 </wgt>
<wgt id='1271'> +7.7570954e+01 </wgt>
<wgt id='1272'> +7.7474681e+01 </wgt>
<wgt id='1273'> +7.7586089e+01 </wgt>
<wgt id='1274'> +7.7388736e+01 </wgt>
<wgt id='1275'> +7.7590642e+01 </wgt>
<wgt id='1276'> +7.7594177e+01 </wgt>
<wgt id='1277'> +7.7614886e+01 </wgt>
<wgt id='1278'> +7.7496313e+01 </wgt>
<wgt id='1279'> +7.7630946e+01 </wgt>
<wgt id='1280'> +7.7504358e+01 </wgt>
<wgt id='1281'> +7.7672329e+01 </wgt>
<wgt id='1282'> +7.7545540e+01 </wgt>
<wgt id='1283'> +7.7437010e+01 </wgt>
<wgt id='1284'> +7.7657046e+01 </wgt>
<wgt id='1285'> +7.7469050e+01 </wgt>
<wgt id='1286'> +7.7630713e+01 </wgt>
<wgt id='1287'> +7.7551974e+01 </wgt>
<wgt id='1288'> +7.7642423e+01 </wgt>
<wgt id='1289'> +7.7584042e+01 </wgt>
<wgt id='1290'> +7.7587258e+01 </wgt>
<wgt id='1291'> +7.7479511e+01 </wgt>
<wgt id='1292'> +7.7553851e+01 </wgt>
<wgt id='1293'> +7.7610016e+01 </wgt>
<wgt id='1294'> +7.7556972e+01 </wgt>
<wgt id='1295'> +7.7518286e+01 </wgt>
<wgt id='1296'> +7.7558296e+01 </wgt>
<wgt id='1297'> +7.7587055e+01 </wgt>
<wgt id='1298'> +7.7514581e+01 </wgt>
<wgt id='1299'> +7.7581522e+01 </wgt>
<wgt id='1300'> +7.7514364e+01 </wgt>
<wgt id='1301'> +7.7532654e+01 </wgt>
<wgt id='1302'> +7.7551262e+01 </wgt>
<wgt id='1303'> +7.7582858e+01 </wgt>
<wgt id='1304'> +7.7506093e+01 </wgt>
<wgt id='1305'> +7.7475525e+01 </wgt>
<wgt id='1306'> +7.7519198e+01 </wgt>
<wgt id='1307'> +7.7570837e+01 </wgt>
<wgt id='1308'> +7.7522401e+01 </wgt>
<wgt id='1309'> +7.7557322e+01 </wgt>
<wgt id='1310'> +7.7634509e+01 </wgt>
<wgt id='1311'> +7.7580593e+01 </wgt>
<wgt id='1312'> +7.7533883e+01 </wgt>
<wgt id='1313'> +7.7563521e+01 </wgt>
<wgt id='1314'> +7.7587967e+01 </wgt>
<wgt id='1315'> +7.7548916e+01 </wgt>
<wgt id='1316'> +7.7518958e+01 </wgt>
<wgt id='1317'> +7.5106720e+01 </wgt>
<wgt id='1318'> +8.0230366e+01 </wgt>
<wgt id='1319'> +7.4055058e+01 </wgt>
<wgt id='1320'> +7.6568726e+01 </wgt>
<wgt id='1321'> +7.6578042e+01 </wgt>
<wgt id='1322'> +7.7021924e+01 </wgt>
<wgt id='1323'> +7.7305092e+01 </wgt>
<wgt id='1324'> +7.5784880e+01 </wgt>
<wgt id='1325'> +7.6239553e+01 </wgt>
<wgt id='1326'> +7.7465963e+01 </wgt>
<wgt id='1327'> +7.6394627e+01 </wgt>
<wgt id='1328'> +7.6584066e+01 </wgt>
<wgt id='1329'> +7.5478220e+01 </wgt>
<wgt id='1330'> +7.8102267e+01 </wgt>
<wgt id='1331'> +7.8495890e+01 </wgt>
<wgt id='1332'> +7.5435913e+01 </wgt>
<wgt id='1333'> +7.5353824e+01 </wgt>
<wgt id='1334'> +7.7163540e+01 </wgt>
<wgt id='1335'> +7.7007889e+01 </wgt>
<wgt id='1336'> +7.5970757e+01 </wgt>
<wgt id='1337'> +7.6727577e+01 </wgt>
<wgt id='1338'> +7.6372512e+01 </wgt>
<wgt id='1339'> +7.7846131e+01 </wgt>
<wgt id='1340'> +7.5228241e+01 </wgt>
<wgt id='1341'> +7.6811913e+01 </wgt>
<wgt id='1342'> +7.6064964e+01 </wgt>
<wgt id='1343'> +7.6407788e+01 </wgt>
<wgt id='1344'> +7.6768604e+01 </wgt>
<wgt id='1345'> +7.6175691e+01 </wgt>
<wgt id='1346'> +7.6874532e+01 </wgt>
<wgt id='1347'> +7.6354798e+01 </wgt>
<wgt id='1348'> +7.6866012e+01 </wgt>
<wgt id='1349'> +7.5818693e+01 </wgt>
<wgt id='1350'> +7.6831574e+01 </wgt>
<wgt id='1351'> +7.6653788e+01 </wgt>
<wgt id='1352'> +7.6457093e+01 </wgt>
<wgt id='1353'> +7.6582326e+01 </wgt>
<wgt id='1354'> +7.6524194e+01 </wgt>
<wgt id='1355'> +7.6617559e+01 </wgt>
<wgt id='1356'> +7.6561368e+01 </wgt>
<wgt id='1357'> +7.6669107e+01 </wgt>
<wgt id='1358'> +7.6320531e+01 </wgt>
<wgt id='1359'> +7.6251262e+01 </wgt>
<wgt id='1360'> +7.6660768e+01 </wgt>
<wgt id='1361'> +7.7080775e+01 </wgt>
<wgt id='1362'> +7.6118849e+01 </wgt>
<wgt id='1363'> +7.7059440e+01 </wgt>
<wgt id='1364'> +7.6167668e+01 </wgt>
<wgt id='1365'> +7.6245193e+01 </wgt>
<wgt id='1366'> +7.6168836e+01 </wgt>
<wgt id='1367'> +7.6124282e+01 </wgt>
<wgt id='1368'> +7.6346595e+01 </wgt>
<wgt id='1369'> +7.6528066e+01 </wgt>
<wgt id='1370'> +7.5328742e+01 </wgt>
<wgt id='1371'> +7.6547093e+01 </wgt>
<wgt id='1372'> +7.6973567e+01 </wgt>
<wgt id='1373'> +7.5709823e+01 </wgt>
<wgt id='1374'> +7.6976346e+01 </wgt>
<wgt id='1375'> +7.5981696e+01 </wgt>
<wgt id='1376'> +7.7377870e+01 </wgt>
<wgt id='1377'> +7.4037820e+01 </wgt>
<wgt id='1378'> +7.9004587e+01 </wgt>
<wgt id='1379'> +7.6400400e+01 </wgt>
<wgt id='1380'> +7.4007833e+01 </wgt>
<wgt id='1381'> +7.8670262e+01 </wgt>
<wgt id='1382'> +6.8466838e+01 </wgt>
<wgt id='1383'> +7.5814414e+01 </wgt>
<wgt id='1384'> +7.6467803e+01 </wgt>
<wgt id='1385'> +8.7511998e+01 </wgt>
<wgt id='1386'> +8.7675211e+01 </wgt>
<wgt id='1387'> +8.7329825e+01 </wgt>
<wgt id='1388'> +8.7486855e+01 </wgt>
<wgt id='1389'> +8.7549617e+01 </wgt>
<wgt id='1390'> +8.7422505e+01 </wgt>
<wgt id='1391'> +8.7617954e+01 </wgt>
<wgt id='1392'> +8.7490415e+01 </wgt>
<wgt id='1393'> +8.7524114e+01 </wgt>
<wgt id='1394'> +8.7613519e+01 </wgt>
<wgt id='1395'> +8.7382833e+01 </wgt>
<wgt id='1396'> +8.7124532e+01 </wgt>
<wgt id='1397'> +8.7712969e+01 </wgt>
<wgt id='1398'> +8.7410423e+01 </wgt>
<wgt id='1399'> +8.7586919e+01 </wgt>
<wgt id='1400'> +8.7785692e+01 </wgt>
<wgt id='1401'> +8.7297835e+01 </wgt>
<wgt id='1402'> +8.7864170e+01 </wgt>
<wgt id='1403'> +8.7351629e+01 </wgt>
<wgt id='1404'> +8.6365152e+01 </wgt>
<wgt id='1405'> +8.8065390e+01 </wgt>
<wgt id='1406'> +8.7244473e+01 </wgt>
<wgt id='1407'> +8.7992789e+01 </wgt>
<wgt id='1408'> +8.7648051e+01 </wgt>
<wgt id='1409'> +8.7231704e+01 </wgt>
<wgt id='1410'> +8.7525853e+01 </wgt>
<wgt id='1411'> +8.7449633e+01 </wgt>
<wgt id='1412'> +8.7934236e+01 </wgt>
<wgt id='1413'> +8.7022555e+01 </wgt>
<wgt id='1414'> +8.7671784e+01 </wgt>
<wgt id='1415'> +8.7358098e+01 </wgt>
<wgt id='1416'> +8.7806927e+01 </wgt>
<wgt id='1417'> +8.7419239e+01 </wgt>
<wgt id='1418'> +8.7395700e+01 </wgt>
<wgt id='1419'> +8.7766096e+01 </wgt>
<wgt id='1420'> +8.7162138e+01 </wgt>
<wgt id='1421'> +8.7597987e+01 </wgt>
<wgt id='1422'> +8.7662040e+01 </wgt>
<wgt id='1423'> +8.7369867e+01 </wgt>
<wgt id='1424'> +8.7844017e+01 </wgt>
<wgt id='1425'> +8.6912585e+01 </wgt>
<wgt id='1426'> +8.7678607e+01 </wgt>
<wgt id='1427'> +8.7421033e+01 </wgt>
<wgt id='1428'> +8.7466572e+01 </wgt>
<wgt id='1429'> +8.7417771e+01 </wgt>
<wgt id='1430'> +8.7613924e+01 </wgt>
<wgt id='1431'> +8.7550314e+01 </wgt>
<wgt id='1432'> +8.7571093e+01 </wgt>
<wgt id='1433'> +8.7609079e+01 </wgt>
<wgt id='1434'> +8.7700853e+01 </wgt>
<wgt id='1435'> +8.7949872e+01 </wgt>
<wgt id='1436'> +7.0903882e+01 </wgt>
<wgt id='1437'> +7.0907367e+01 </wgt>
<wgt id='1438'> +7.0848555e+01 </wgt>
<wgt id='1439'> +7.0902482e+01 </wgt>
<wgt id='1440'> +7.0990687e+01 </wgt>
<wgt id='1441'> +7.1024805e+01 </wgt>
<wgt id='1442'> +7.0782806e+01 </wgt>
<wgt id='1443'> +7.0985307e+01 </wgt>
<wgt id='1444'> +7.0567658e+01 </wgt>
<wgt id='1445'> +7.0438880e+01 </wgt>
<wgt id='1446'> +7.1108022e+01 </wgt>
<wgt id='1447'> +7.0986053e+01 </wgt>
<wgt id='1448'> +7.0797895e+01 </wgt>
<wgt id='1449'> +7.0899362e+01 </wgt>
<wgt id='1450'> +7.0914721e+01 </wgt>
<wgt id='1451'> +7.0995013e+01 </wgt>
<wgt id='1452'> +7.0512973e+01 </wgt>
<wgt id='1453'> +7.0962588e+01 </wgt>
<wgt id='1454'> +7.1063040e+01 </wgt>
<wgt id='1455'> +7.0589841e+01 </wgt>
<wgt id='1456'> +7.0823115e+01 </wgt>
<wgt id='1457'> +7.1024870e+01 </wgt>
<wgt id='1458'> +7.1126813e+01 </wgt>
<wgt id='1459'> +7.1088583e+01 </wgt>
<wgt id='1460'> +7.1056800e+01 </wgt>
<wgt id='1461'> +7.1397367e+01 </wgt>
<wgt id='1462'> +7.0862801e+01 </wgt>
<wgt id='1463'> +7.1035470e+01 </wgt>
<wgt id='1464'> +7.0840552e+01 </wgt>
<wgt id='1465'> +7.8781742e+01 </wgt>
<wgt id='1466'> +7.6057817e+01 </wgt>
<wgt id='1467'> +7.5839621e+01 </wgt>
<wgt id='1468'> +7.6270742e+01 </wgt>
<wgt id='1469'> +7.6394280e+01 </wgt>
<wgt id='1470'> +7.5884333e+01 </wgt>
<wgt id='1471'> +7.5890487e+01 </wgt>
<wgt id='1472'> +7.5828461e+01 </wgt>
<wgt id='1473'> +7.6201447e+01 </wgt>
<wgt id='1474'> +7.6506245e+01 </wgt>
<wgt id='1475'> +7.5697198e+01 </wgt>
<wgt id='1476'> +7.6187098e+01 </wgt>
<wgt id='1477'> +7.5980522e+01 </wgt>
<wgt id='1478'> +7.5473924e+01 </wgt>
<wgt id='1479'> +7.6610969e+01 </wgt>
<wgt id='1480'> +7.5773791e+01 </wgt>
<wgt id='1481'> +7.5998694e+01 </wgt>
<wgt id='1482'> +7.6056468e+01 </wgt>
<wgt id='1483'> +7.5872613e+01 </wgt>
<wgt id='1484'> +7.6330137e+01 </wgt>
<wgt id='1485'> +7.5847942e+01 </wgt>
<wgt id='1486'> +7.6080308e+01 </wgt>
<wgt id='1487'> +7.5910056e+01 </wgt>
<wgt id='1488'> +7.5760084e+01 </wgt>
<wgt id='1489'> +7.6373924e+01 </wgt>
<wgt id='1490'> +7.6035185e+01 </wgt>
<wgt id='1491'> +7.6225602e+01 </wgt>
<wgt id='1492'> +7.5993868e+01 </wgt>
<wgt id='1493'> +7.5906674e+01 </wgt>
<wgt id='1494'> +7.6218956e+01 </wgt>
<wgt id='1495'> +7.5954383e+01 </wgt>
<wgt id='1496'> +7.5838552e+01 </wgt>
<wgt id='1497'> +7.6112696e+01 </wgt>
<wgt id='1498'> +7.5935750e+01 </wgt>
<wgt id='1499'> +7.5660767e+01 </wgt>
<wgt id='1500'> +7.6133986e+01 </wgt>
<wgt id='1501'> +7.6217406e+01 </wgt>
<wgt id='1502'> +7.5975144e+01 </wgt>
<wgt id='1503'> +7.5890036e+01 </wgt>
<wgt id='1504'> +7.6110420e+01 </wgt>
<wgt id='1505'> +7.6244718e+01 </wgt>
<wgt id='1506'> +7.6106769e+01 </wgt>
<wgt id='1507'> +7.6205966e+01 </wgt>
<wgt id='1508'> +7.6000028e+01 </wgt>
<wgt id='1509'> +7.6028435e+01 </wgt>
<wgt id='1510'> +7.6203190e+01 </wgt>
<wgt id='1511'> +7.6104343e+01 </wgt>
<wgt id='1512'> +7.5983902e+01 </wgt>
<wgt id='1513'> +7.5872081e+01 </wgt>
<wgt id='1514'> +7.5994792e+01 </wgt>
<wgt id='1515'> +7.6048399e+01 </wgt>
<wgt id='1516'> +7.6031000e+01 </wgt>
<wgt id='1517'> +7.6017257e+01 </wgt>
<wgt id='1518'> +7.6055413e+01 </wgt>
<wgt id='1519'> +7.6143945e+01 </wgt>
<wgt id='1520'> +7.6061588e+01 </wgt>
<wgt id='1521'> +7.6061634e+01 </wgt>
<wgt id='1522'> +7.6155981e+01 </wgt>
<wgt id='1523'> +7.6064409e+01 </wgt>
<wgt id='1524'> +7.6156414e+01 </wgt>
<wgt id='1525'> +7.6002546e+01 </wgt>
<wgt id='1526'> +7.5913334e+01 </wgt>
<wgt id='1527'> +7.6030829e+01 </wgt>
<wgt id='1528'> +7.5980790e+01 </wgt>
<wgt id='1529'> +7.6039125e+01 </wgt>
<wgt id='1530'> +7.6035177e+01 </wgt>
<wgt id='1531'> +7.6034455e+01 </wgt>
<wgt id='1532'> +7.6010078e+01 </wgt>
<wgt id='1533'> +7.6048585e+01 </wgt>
<wgt id='1534'> +7.6076190e+01 </wgt>
<wgt id='1535'> +7.6065904e+01 </wgt>
<wgt id='1536'> +7.6002405e+01 </wgt>
<wgt id='1537'> +7.6001144e+01 </wgt>
<wgt id='1538'> +7.6047337e+01 </wgt>
<wgt id='1539'> +7.6047158e+01 </wgt>
<wgt id='1540'> +7.6030331e+01 </wgt>
<wgt id='1541'> +7.6021210e+01 </wgt>
<wgt id='1542'> +7.6061754e+01 </wgt>
<wgt id='1543'> +7.6029628e+01 </wgt>
<wgt id='1544'> +7.6056609e+01 </wgt>
<wgt id='1545'> +7.6127338e+01 </wgt>
<wgt id='1546'> +7.6074342e+01 </wgt>
<wgt id='1547'> +7.6076636e+01 </wgt>
<wgt id='1548'> +7.6009366e+01 </wgt>
<wgt id='1549'> +7.6063604e+01 </wgt>
<wgt id='1550'> +7.6085485e+01 </wgt>
<wgt id='1551'> +7.6037978e+01 </wgt>
<wgt id='1552'> +7.6090515e+01 </wgt>
<wgt id='1553'> +7.6036613e+01 </wgt>
<wgt id='1554'> +7.6053165e+01 </wgt>
<wgt id='1555'> +7.6078814e+01 </wgt>
<wgt id='1556'> +7.6057187e+01 </wgt>
<wgt id='1557'> +7.6053038e+01 </wgt>
<wgt id='1558'> +7.6087635e+01 </wgt>
<wgt id='1559'> +7.6071619e+01 </wgt>
<wgt id='1560'> +7.6058900e+01 </wgt>
<wgt id='1561'> +7.6041800e+01 </wgt>
<wgt id='1562'> +7.6060756e+01 </wgt>
<wgt id='1563'> +7.6042679e+01 </wgt>
<wgt id='1564'> +7.6072911e+01 </wgt>
<wgt id='1565'> +7.6050184e+01 </wgt>
<wgt id='1566'> +7.6060316e+01 </wgt>
<wgt id='1567'> +7.4165800e+01 </wgt>
<wgt id='1568'> +7.7884657e+01 </wgt>
<wgt id='1569'> +7.6167388e+01 </wgt>
<wgt id='1570'> +7.6397854e+01 </wgt>
<wgt id='1571'> +7.6161797e+01 </wgt>
<wgt id='1572'> +7.5978994e+01 </wgt>
<wgt id='1573'> +7.6265528e+01 </wgt>
<wgt id='1574'> +7.6536449e+01 </wgt>
<wgt id='1575'> +7.5989724e+01 </wgt>
<wgt id='1576'> +7.5860022e+01 </wgt>
<wgt id='1577'> +7.6165728e+01 </wgt>
<wgt id='1578'> +7.6206990e+01 </wgt>
<wgt id='1579'> +7.6219530e+01 </wgt>
<wgt id='1580'> +7.6480755e+01 </wgt>
<wgt id='1581'> +7.5726526e+01 </wgt>
<wgt id='1582'> +7.5657379e+01 </wgt>
<wgt id='1583'> +7.5598632e+01 </wgt>
<wgt id='1584'> +7.6005970e+01 </wgt>
<wgt id='1585'> +7.6291921e+01 </wgt>
<wgt id='1586'> +7.6235140e+01 </wgt>
<wgt id='1587'> +7.6292205e+01 </wgt>
<wgt id='1588'> +7.5685228e+01 </wgt>
<wgt id='1589'> +7.6389543e+01 </wgt>
<wgt id='1590'> +7.6279079e+01 </wgt>
<wgt id='1591'> +7.6046380e+01 </wgt>
<wgt id='1592'> +7.6236505e+01 </wgt>
<wgt id='1593'> +7.6492973e+01 </wgt>
<wgt id='1594'> +7.6298376e+01 </wgt>
<wgt id='1595'> +7.6139407e+01 </wgt>
<wgt id='1596'> +7.6143055e+01 </wgt>
<wgt id='1597'> +7.6185088e+01 </wgt>
<wgt id='1598'> +7.6258378e+01 </wgt>
<wgt id='1599'> +7.6330033e+01 </wgt>
<wgt id='1600'> +7.6369865e+01 </wgt>
<wgt id='1601'> +7.6392156e+01 </wgt>
<wgt id='1602'> +7.6658604e+01 </wgt>
<wgt id='1603'> +7.6363215e+01 </wgt>
<wgt id='1604'> +7.6108931e+01 </wgt>
<wgt id='1605'> +7.6208857e+01 </wgt>
<wgt id='1606'> +7.6064484e+01 </wgt>
<wgt id='1607'> +7.6166114e+01 </wgt>
<wgt id='1608'> +7.6203985e+01 </wgt>
<wgt id='1609'> +7.6127799e+01 </wgt>
<wgt id='1610'> +7.6258471e+01 </wgt>
<wgt id='1611'> +7.6244795e+01 </wgt>
<wgt id='1612'> +7.5974584e+01 </wgt>
<wgt id='1613'> +7.6159339e+01 </wgt>
<wgt id='1614'> +7.6031062e+01 </wgt>
<wgt id='1615'> +7.6128268e+01 </wgt>
<wgt id='1616'> +7.6145770e+01 </wgt>
<wgt id='1617'> +7.6337232e+01 </wgt>
<wgt id='1618'> +7.6144791e+01 </wgt>
<wgt id='1619'> +7.6228785e+01 </wgt>
<wgt id='1620'> +7.6136976e+01 </wgt>
<wgt id='1621'> +7.6044581e+01 </wgt>
<wgt id='1622'> +7.6251352e+01 </wgt>
<wgt id='1623'> +7.6142712e+01 </wgt>
<wgt id='1624'> +7.6214738e+01 </wgt>
<wgt id='1625'> +7.6210781e+01 </wgt>
<wgt id='1626'> +7.6135860e+01 </wgt>
<wgt id='1627'> +7.6134012e+01 </wgt>
<wgt id='1628'> +7.6118996e+01 </wgt>
<wgt id='1629'> +7.6069900e+01 </wgt>
<wgt id='1630'> +7.6241341e+01 </wgt>
<wgt id='1631'> +7.6141477e+01 </wgt>
<wgt id='1632'> +7.6186098e+01 </wgt>
<wgt id='1633'> +7.6104482e+01 </wgt>
<wgt id='1634'> +7.6229879e+01 </wgt>
<wgt id='1635'> +7.6182813e+01 </wgt>
<wgt id='1636'> +7.6213723e+01 </wgt>
<wgt id='1637'> +7.6235525e+01 </wgt>
<wgt id='1638'> +7.6202666e+01 </wgt>
<wgt id='1639'> +7.6188119e+01 </wgt>
<wgt id='1640'> +7.6237105e+01 </wgt>
<wgt id='1641'> +7.6173038e+01 </wgt>
<wgt id='1642'> +7.6181556e+01 </wgt>
<wgt id='1643'> +7.6201686e+01 </wgt>
<wgt id='1644'> +7.6171159e+01 </wgt>
<wgt id='1645'> +7.6107292e+01 </wgt>
<wgt id='1646'> +7.6161351e+01 </wgt>
<wgt id='1647'> +7.6168499e+01 </wgt>
<wgt id='1648'> +7.6137815e+01 </wgt>
<wgt id='1649'> +7.6234737e+01 </wgt>
<wgt id='1650'> +7.6135016e+01 </wgt>
<wgt id='1651'> +7.6189323e+01 </wgt>
<wgt id='1652'> +7.6132478e+01 </wgt>
<wgt id='1653'> +7.6161666e+01 </wgt>
<wgt id='1654'> +7.6158096e+01 </wgt>
<wgt id='1655'> +7.6197836e+01 </wgt>
<wgt id='1656'> +7.6125723e+01 </wgt>
<wgt id='1657'> +7.6160230e+01 </wgt>
<wgt id='1658'> +7.6166643e+01 </wgt>
<wgt id='1659'> +7.6182999e+01 </wgt>
<wgt id='1660'> +7.6127301e+01 </wgt>
<wgt id='1661'> +7.6161407e+01 </wgt>
<wgt id='1662'> +7.6136623e+01 </wgt>
<wgt id='1663'> +7.6189138e+01 </wgt>
<wgt id='1664'> +7.6156039e+01 </wgt>
<wgt id='1665'> +7.6142749e+01 </wgt>
<wgt id='1666'> +7.6173292e+01 </wgt>
<wgt id='1667'> +7.6172887e+01 </wgt>
<wgt id='1668'> +7.6155147e+01 </wgt>
<wgt id='1669'> +7.6161889e+01 </wgt>
<wgt id='1670'> +7.4242480e+01 </wgt>
<wgt id='1671'> +7.7771024e+01 </wgt>
<wgt id='1672'> +7.6060685e+01 </wgt>
<wgt id='1673'> +7.5779758e+01 </wgt>
<wgt id='1674'> +7.5657287e+01 </wgt>
<wgt id='1675'> +7.6075422e+01 </wgt>
<wgt id='1676'> +7.6747474e+01 </wgt>
<wgt id='1677'> +7.7010938e+01 </wgt>
<wgt id='1678'> +7.5971425e+01 </wgt>
<wgt id='1679'> +7.6015497e+01 </wgt>
<wgt id='1680'> +7.6233207e+01 </wgt>
<wgt id='1681'> +7.5884329e+01 </wgt>
<wgt id='1682'> +7.6169767e+01 </wgt>
<wgt id='1683'> +7.6024450e+01 </wgt>
<wgt id='1684'> +7.6393538e+01 </wgt>
<wgt id='1685'> +7.6079689e+01 </wgt>
<wgt id='1686'> +7.6085386e+01 </wgt>
<wgt id='1687'> +7.6093596e+01 </wgt>
<wgt id='1688'> +7.6008065e+01 </wgt>
<wgt id='1689'> +7.6144253e+01 </wgt>
<wgt id='1690'> +7.6056400e+01 </wgt>
<wgt id='1691'> +7.6185132e+01 </wgt>
<wgt id='1692'> +7.6168129e+01 </wgt>
<wgt id='1693'> +7.5926363e+01 </wgt>
<wgt id='1694'> +7.5943626e+01 </wgt>
<wgt id='1695'> +7.6126417e+01 </wgt>
<wgt id='1696'> +7.5887764e+01 </wgt>
<wgt id='1697'> +7.6070256e+01 </wgt>
<wgt id='1698'> +7.5999024e+01 </wgt>
<wgt id='1699'> +7.6198036e+01 </wgt>
<wgt id='1700'> +7.6108363e+01 </wgt>
<wgt id='1701'> +7.6090725e+01 </wgt>
<wgt id='1702'> +7.6072963e+01 </wgt>
<wgt id='1703'> +7.4165800e+01 </wgt>
<wgt id='1704'> +7.7884657e+01 </wgt>
<wgt id='1705'> +7.6163194e+01 </wgt>
<wgt id='1706'> +7.6289693e+01 </wgt>
<wgt id='1707'> +7.6173385e+01 </wgt>
<wgt id='1708'> +7.6116918e+01 </wgt>
<wgt id='1709'> +7.5835990e+01 </wgt>
<wgt id='1710'> +7.5486754e+01 </wgt>
<wgt id='1711'> +7.6202864e+01 </wgt>
<wgt id='1712'> +7.6036797e+01 </wgt>
<wgt id='1713'> +7.6215453e+01 </wgt>
<wgt id='1714'> +7.5770082e+01 </wgt>
<wgt id='1715'> +7.5883682e+01 </wgt>
<wgt id='1716'> +7.5810271e+01 </wgt>
<wgt id='1717'> +7.6185806e+01 </wgt>
<wgt id='1718'> +7.6243119e+01 </wgt>
<wgt id='1719'> +7.6033930e+01 </wgt>
<wgt id='1720'> +7.6107950e+01 </wgt>
<wgt id='1721'> +7.6103329e+01 </wgt>
<wgt id='1722'> +7.6216181e+01 </wgt>
<wgt id='1723'> +7.6201886e+01 </wgt>
<wgt id='1724'> +7.6256271e+01 </wgt>
<wgt id='1725'> +7.5462632e+01 </wgt>
<wgt id='1726'> +7.6272705e+01 </wgt>
<wgt id='1727'> +7.7018569e+01 </wgt>
<wgt id='1728'> +7.6182523e+01 </wgt>
<wgt id='1729'> +7.6169868e+01 </wgt>
<wgt id='1730'> +7.6164889e+01 </wgt>
<wgt id='1731'> +7.6237918e+01 </wgt>
<wgt id='1732'> +7.6191981e+01 </wgt>
<wgt id='1733'> +7.6187370e+01 </wgt>
<wgt id='1734'> +7.6190288e+01 </wgt>
<wgt id='1735'> +7.6236999e+01 </wgt>
<wgt id='1736'> +7.4242480e+01 </wgt>
<wgt id='1737'> +7.7771024e+01 </wgt>
<wgt id='1738'> +8.3019821e+01 </wgt>
<wgt id='1739'> +8.3012238e+01 </wgt>
<wgt id='1740'> +8.3027270e+01 </wgt>
<wgt id='1741'> +8.2995434e+01 </wgt>
<wgt id='1742'> +8.3043942e+01 </wgt>
<wgt id='1743'> +8.3063657e+01 </wgt>
<wgt id='1744'> +8.2975479e+01 </wgt>
<wgt id='1745'> +8.3060961e+01 </wgt>
<wgt id='1746'> +8.2979055e+01 </wgt>
<wgt id='1747'> +8.3268659e+01 </wgt>
<wgt id='1748'> +8.2770015e+01 </wgt>
<wgt id='1749'> +8.2970225e+01 </wgt>
<wgt id='1750'> +8.3091083e+01 </wgt>
<wgt id='1751'> +8.2651340e+01 </wgt>
<wgt id='1752'> +8.3388923e+01 </wgt>
<wgt id='1753'> +8.2847338e+01 </wgt>
<wgt id='1754'> +8.3098916e+01 </wgt>
<wgt id='1755'> +8.3028590e+01 </wgt>
<wgt id='1756'> +8.3040415e+01 </wgt>
<wgt id='1757'> +8.2888567e+01 </wgt>
<wgt id='1758'> +8.3125052e+01 </wgt>
<wgt id='1759'> +8.3392141e+01 </wgt>
<wgt id='1760'> +8.2625868e+01 </wgt>
<wgt id='1761'> +8.2516560e+01 </wgt>
<wgt id='1762'> +8.3320671e+01 </wgt>
<wgt id='1763'> +8.3597226e+01 </wgt>
<wgt id='1764'> +8.2515907e+01 </wgt>
<wgt id='1765'> +8.2796579e+01 </wgt>
<wgt id='1766'> +8.3115899e+01 </wgt>
<wgt id='1767'> +8.3019821e+01 </wgt>
<wgt id='1768'> +8.3100411e+01 </wgt>
<wgt id='1769'> +8.2914183e+01 </wgt>
<wgt id='1770'> +8.3100519e+01 </wgt>
<wgt id='1771'> +8.2949495e+01 </wgt>
<wgt id='1772'> +8.3508556e+01 </wgt>
<wgt id='1773'> +8.2472354e+01 </wgt>
<wgt id='1774'> +8.2854203e+01 </wgt>
<wgt id='1775'> +8.3194770e+01 </wgt>
<wgt id='1776'> +8.2874651e+01 </wgt>
<wgt id='1777'> +8.3187201e+01 </wgt>
<wgt id='1778'> +8.3008272e+01 </wgt>
<wgt id='1779'> +8.3159451e+01 </wgt>
<wgt id='1780'> +8.1852073e+01 </wgt>
<wgt id='1781'> +8.1001280e+01 </wgt>
<wgt id='1782'> +8.1001489e+01 </wgt>
<wgt id='1783'> +8.1019736e+01 </wgt>
<wgt id='1784'> +8.0974610e+01 </wgt>
<wgt id='1785'> +8.1046781e+01 </wgt>
<wgt id='1786'> +8.1043344e+01 </wgt>
<wgt id='1787'> +8.0977138e+01 </wgt>
<wgt id='1788'> +8.1045999e+01 </wgt>
<wgt id='1789'> +8.0977328e+01 </wgt>
<wgt id='1790'> +8.1085412e+01 </wgt>
<wgt id='1791'> +8.0938610e+01 </wgt>
<wgt id='1792'> +8.1183850e+01 </wgt>
<wgt id='1793'> +8.0837461e+01 </wgt>
<wgt id='1794'> +8.0677691e+01 </wgt>
<wgt id='1795'> +8.1339726e+01 </wgt>
<wgt id='1796'> +8.0833162e+01 </wgt>
<wgt id='1797'> +8.1090566e+01 </wgt>
<wgt id='1798'> +8.1108858e+01 </wgt>
<wgt id='1799'> +8.0906172e+01 </wgt>
<wgt id='1800'> +8.1034473e+01 </wgt>
<wgt id='1801'> +8.0988755e+01 </wgt>
<wgt id='1802'> +8.0424068e+01 </wgt>
<wgt id='1803'> +8.1572863e+01 </wgt>
<wgt id='1804'> +8.1259330e+01 </wgt>
<wgt id='1805'> +8.0796768e+01 </wgt>
<wgt id='1806'> +8.0451699e+01 </wgt>
<wgt id='1807'> +8.1457824e+01 </wgt>
<wgt id='1808'> +8.0624511e+01 </wgt>
<wgt id='1809'> +8.1235440e+01 </wgt>
<wgt id='1810'> +8.0958796e+01 </wgt>
<wgt id='1811'> +8.1051804e+01 </wgt>
<wgt id='1812'> +8.0699503e+01 </wgt>
<wgt id='1813'> +8.1004832e+01 </wgt>
<wgt id='1814'> +8.0878275e+01 </wgt>
<wgt id='1815'> +8.1117701e+01 </wgt>
<wgt id='1816'> +8.0004354e+01 </wgt>
<wgt id='1817'> +8.0823876e+01 </wgt>
<wgt id='1818'> +8.1363546e+01 </wgt>
<wgt id='1819'> +8.0079145e+01 </wgt>
<wgt id='1820'> +8.1021604e+01 </wgt>
<wgt id='1821'> +7.9960530e+01 </wgt>
<wgt id='1822'> +8.2105659e+01 </wgt>
<wgt id='1823'> +7.9619315e+01 </wgt>
<wgt id='1824'> +7.6270867e+01 </wgt>
<wgt id='1825'> +7.6258835e+01 </wgt>
<wgt id='1826'> +7.6246995e+01 </wgt>
<wgt id='1827'> +7.6235028e+01 </wgt>
<wgt id='1828'> +7.6223192e+01 </wgt>
<wgt id='1829'> +7.6211220e+01 </wgt>
<wgt id='1830'> +7.6199371e+01 </wgt>
<wgt id='1831'> +7.6187575e+01 </wgt>
<wgt id='1832'> +7.6175585e+01 </wgt>
<wgt id='1833'> +7.6163797e+01 </wgt>
<wgt id='1834'> +7.6151782e+01 </wgt>
<wgt id='1835'> +7.6139990e+01 </wgt>
<wgt id='1836'> +7.6127999e+01 </wgt>
<wgt id='1837'> +7.6116151e+01 </wgt>
<wgt id='1838'> +7.6104348e+01 </wgt>
<wgt id='1839'> +7.6092349e+01 </wgt>
<wgt id='1840'> +7.6080625e+01 </wgt>
<wgt id='1841'> +7.6068650e+01 </wgt>
<wgt id='1842'> +7.6056861e+01 </wgt>
<wgt id='1843'> +7.6044880e+01 </wgt>
<wgt id='1844'> +7.6033104e+01 </wgt>
<wgt id='1845'> +7.6021270e+01 </wgt>
<wgt id='1846'> +7.6009290e+01 </wgt>
<wgt id='1847'> +7.5997526e+01 </wgt>
<wgt id='1848'> +7.5985473e+01 </wgt>
<wgt id='1849'> +7.5973693e+01 </wgt>
<wgt id='1850'> +7.5961713e+01 </wgt>
<wgt id='1851'> +7.5949932e+01 </wgt>
<wgt id='1852'> +7.5937958e+01 </wgt>
<wgt id='1853'> +7.5926197e+01 </wgt>
<wgt id='1854'> +7.5914346e+01 </wgt>
<wgt id='1855'> +7.5648053e+01 </wgt>
<wgt id='1856'> +7.5875249e+01 </wgt>
<wgt id='1857'> +7.5640123e+01 </wgt>
<wgt id='1858'> +7.5463474e+01 </wgt>
<wgt id='1859'> +7.5746060e+01 </wgt>
<wgt id='1860'> +7.6015770e+01 </wgt>
<wgt id='1861'> +7.5474197e+01 </wgt>
<wgt id='1862'> +7.5342441e+01 </wgt>
<wgt id='1863'> +7.5645862e+01 </wgt>
<wgt id='1864'> +7.5688585e+01 </wgt>
<wgt id='1865'> +7.5701538e+01 </wgt>
<wgt id='1866'> +7.5961635e+01 </wgt>
<wgt id='1867'> +7.5211296e+01 </wgt>
<wgt id='1868'> +7.5145256e+01 </wgt>
<wgt id='1869'> +7.5080127e+01 </wgt>
<wgt id='1870'> +7.5481195e+01 </wgt>
<wgt id='1871'> +7.5773147e+01 </wgt>
<wgt id='1872'> +7.5715228e+01 </wgt>
<wgt id='1873'> +7.5772535e+01 </wgt>
<wgt id='1874'> +7.5172189e+01 </wgt>
<wgt id='1875'> +7.5871072e+01 </wgt>
<wgt id='1876'> +7.5755794e+01 </wgt>
<wgt id='1877'> +7.5529652e+01 </wgt>
<wgt id='1878'> +7.5715302e+01 </wgt>
<wgt id='1879'> +7.5969557e+01 </wgt>
<wgt id='1880'> +7.5777858e+01 </wgt>
<wgt id='1881'> +7.5619100e+01 </wgt>
<wgt id='1882'> +7.5626082e+01 </wgt>
<wgt id='1883'> +7.5666888e+01 </wgt>
<wgt id='1884'> +7.5737094e+01 </wgt>
<wgt id='1885'> +7.5809092e+01 </wgt>
<wgt id='1886'> +7.5851189e+01 </wgt>
<wgt id='1887'> +7.5870521e+01 </wgt>
<wgt id='1888'> +7.6135730e+01 </wgt>
<wgt id='1889'> +7.5842339e+01 </wgt>
<wgt id='1890'> +7.5589510e+01 </wgt>
<wgt id='1891'> +7.5689785e+01 </wgt>
<wgt id='1892'> +7.5547567e+01 </wgt>
<wgt id='1893'> +7.5647140e+01 </wgt>
<wgt id='1894'> +7.5683457e+01 </wgt>
<wgt id='1895'> +7.5607763e+01 </wgt>
<wgt id='1896'> +7.5736852e+01 </wgt>
<wgt id='1897'> +7.5724204e+01 </wgt>
<wgt id='1898'> +7.5457313e+01 </wgt>
<wgt id='1899'> +7.5641309e+01 </wgt>
<wgt id='1900'> +7.5511985e+01 </wgt>
<wgt id='1901'> +7.5610087e+01 </wgt>
<wgt id='1902'> +7.5625972e+01 </wgt>
<wgt id='1903'> +7.5817630e+01 </wgt>
<wgt id='1904'> +7.5624257e+01 </wgt>
<wgt id='1905'> +7.5709508e+01 </wgt>
<wgt id='1906'> +7.5618654e+01 </wgt>
<wgt id='1907'> +7.5526290e+01 </wgt>
<wgt id='1908'> +7.5731750e+01 </wgt>
<wgt id='1909'> +7.5624105e+01 </wgt>
<wgt id='1910'> +7.5694805e+01 </wgt>
<wgt id='1911'> +7.5690287e+01 </wgt>
<wgt id='1912'> +7.5616409e+01 </wgt>
<wgt id='1913'> +7.5615605e+01 </wgt>
<wgt id='1914'> +7.5600611e+01 </wgt>
<wgt id='1915'> +7.5551488e+01 </wgt>
<wgt id='1916'> +7.5721627e+01 </wgt>
<wgt id='1917'> +7.5621569e+01 </wgt>
<wgt id='1918'> +7.5666980e+01 </wgt>
<wgt id='1919'> +7.5584698e+01 </wgt>
<wgt id='1920'> +7.5710167e+01 </wgt>
<wgt id='1921'> +7.5663618e+01 </wgt>
<wgt id='1922'> +7.5693892e+01 </wgt>
<wgt id='1923'> +7.5715676e+01 </wgt>
<wgt id='1924'> +7.5683242e+01 </wgt>
<wgt id='1925'> +7.5668674e+01 </wgt>
<wgt id='1926'> +7.5717940e+01 </wgt>
<wgt id='1927'> +7.5653930e+01 </wgt>
<wgt id='1928'> +7.5662054e+01 </wgt>
<wgt id='1929'> +7.5682122e+01 </wgt>
<wgt id='1930'> +7.5651307e+01 </wgt>
<wgt id='1931'> +7.5588513e+01 </wgt>
<wgt id='1932'> +7.5642506e+01 </wgt>
<wgt id='1933'> +7.5649989e+01 </wgt>
<wgt id='1934'> +7.5618905e+01 </wgt>
<wgt id='1935'> +7.5714674e+01 </wgt>
<wgt id='1936'> +7.5616389e+01 </wgt>
<wgt id='1937'> +7.5670100e+01 </wgt>
<wgt id='1938'> +7.5613232e+01 </wgt>
<wgt id='1939'> +7.5642436e+01 </wgt>
<wgt id='1940'> +7.5639266e+01 </wgt>
<wgt id='1941'> +7.5678944e+01 </wgt>
<wgt id='1942'> +7.5606409e+01 </wgt>
<wgt id='1943'> +7.5641106e+01 </wgt>
<wgt id='1944'> +7.5647333e+01 </wgt>
<wgt id='1945'> +7.5663849e+01 </wgt>
<wgt id='1946'> +7.5607581e+01 </wgt>
<wgt id='1947'> +7.5642049e+01 </wgt>
<wgt id='1948'> +7.5617299e+01 </wgt>
<wgt id='1949'> +7.5669773e+01 </wgt>
<wgt id='1950'> +7.5636682e+01 </wgt>
<wgt id='1951'> +7.5623271e+01 </wgt>
<wgt id='1952'> +7.5653762e+01 </wgt>
<wgt id='1953'> +7.5653911e+01 </wgt>
<wgt id='1954'> +7.5635852e+01 </wgt>
<wgt id='1955'> +7.5642383e+01 </wgt>
<wgt id='1956'> +7.5647585e+01 </wgt>
<wgt id='1957'> +7.5650605e+01 </wgt>
<wgt id='1958'> +7.5648546e+01 </wgt>
<wgt id='1959'> +7.5648627e+01 </wgt>
<wgt id='1960'> +7.5649490e+01 </wgt>
<wgt id='1961'> +7.5648261e+01 </wgt>
<wgt id='1962'> +7.5651157e+01 </wgt>
</rwgt>
</event>
<event npLO=" -1 " npNLO=" 1 ">
 7      1 +1.5146096e+02 4.49370830e+01 7.54677110e-03 1.26516450e-01
       -2 -1    0    0    0  501 +0.0000000000e+00 +0.0000000000e+00 +1.6765886000e+02 1.6765886000e+02 0.0000000000e+00 0.0000e+00 9.0000e+00
       21 -1    0    0  501  502 +0.0000000000e+00 +0.0000000000e+00 -4.1562171000e+01 4.1562171000e+01 0.0000000000e+00 0.0000e+00 9.0000e+00
       23  2    1    2    0    0 -2.7385768000e+01 -5.1546494000e+01 +7.8922307000e+01 1.3417143000e+02 9.1467041000e+01 0.0000e+00 0.0000e+00
       13  1    3    3    0    0 +2.1445649000e+01 -2.6848255000e+00 +4.8230233000e+01 5.2851486000e+01 0.0000000000e+00 0.0000e+00 9.0000e+00
      -13  1    3    3    0    0 -2.6147797000e+01 -9.7526300000e+00 +2.1389480000e+01 3.5161498000e+01 0.0000000000e+00 0.0000e+00 9.0000e+00
       22  1    3    3    0    0 -2.2683620000e+01 -3.9109039000e+01 +9.3025942000e+00 4.6158442000e+01 0.0000000000e+00 0.0000e+00 9.0000e+00
       -2  1    1    2    0  502 +2.7385768000e+01 +5.1546494000e+01 +4.7174386000e+01 7.5049610000e+01 0.0000000000e+00 0.0000e+00 9.0000e+00
#aMCatNLO 1  0  0  2  6 0.88966404E+01 0.00000000E+00 -9  7  0 0.00000000E+00 0.00000000E+00 0.00000000E+00 0.00000000E+00 0.00000000E+00
<rwgt>
<wgt id='1001'> +1.5146000e+02 </wgt>
<wgt id='1002'> +1.5146000e+02 </wgt>
<wgt id='1003'> +1.3478000e+02 </wgt>
<wgt id='1004'> +1.4993000e+02 </wgt>
<wgt id='1005'> +1.5257000e+02 </wgt>
<wgt id='1006'> +1.5220000e+02 </wgt>
<wgt id='1007'> +1.3782000e+02 </wgt>
<wgt id='1008'> +1.4790000e+02 </wgt>
<wgt id='1009'> +1.5777000e+02 </wgt>
<wgt id='1010'> +1.5139000e+02 </wgt>
<wgt id='1011'> +1.5222000e+02 </wgt>
<wgt id='1012'> +1.5235000e+02 </wgt>
<wgt id='1013'> +1.4746000e+02 </wgt>
<wgt id='1014'> +1.5280000e+02 </wgt>
<wgt id='1015'> +1.5689000e+02 </wgt>
<wgt id='1016'> +1.5060000e+02 </wgt>
<wgt id='1017'> +1.5057000e+02 </wgt>
<wgt id='1018'> +1.5213000e+02 </wgt>
<wgt id='1019'> +1.4947000e+02 </wgt>
<wgt id='1020'> +1.4684000e+02 </wgt>
<wgt id='1021'> +1.5036000e+02 </wgt>
<wgt id='1022'> +1.5595000e+02 </wgt>
<wgt id='1023'> +1.5363000e+02 </wgt>
<wgt id='1024'> +1.5366000e+02 </wgt>
<wgt id='1025'> +1.5958000e+02 </wgt>
<wgt id='1026'> +1.5674000e+02 </wgt>
<wgt id='1027'> +1.5369000e+02 </wgt>
<wgt id='1028'> +1.5229000e+02 </wgt>
<wgt id='1029'> +1.5024000e+02 </wgt>
<wgt id='1030'> +1.5154000e+02 </wgt>
<wgt id='1031'> +1.5089000e+02 </wgt>
<wgt id='1032'> +1.5583000e+02 </wgt>
<wgt id='1033'> +1.5581000e+02 </wgt>
<wgt id='1034'> +1.5122000e+02 </wgt>
<wgt id='1035'> +1.5598000e+02 </wgt>
<wgt id='1036'> +1.5187000e+02 </wgt>
<wgt id='1037'> +1.5924000e+02 </wgt>
<wgt id='1038'> +1.5315000e+02 </wgt>
<wgt id='1039'> +1.5391000e+02 </wgt>
<wgt id='1040'> +1.4939000e+02 </wgt>
<wgt id='1041'> +1.4383000e+02 </wgt>
<wgt id='1042'> +1.5438000e+02 </wgt>
<wgt id='1043'> +1.4551000e+02 </wgt>
<wgt id='1044'> +1.5038000e+02 </wgt>
<wgt id='1045'> +1.5497000e+02 </wgt>
<wgt id='1046'> +1.4976000e+02 </wgt>
<wgt id='1047'> +1.5444000e+02 </wgt>
<wgt id='1048'> +1.4605000e+02 </wgt>
<wgt id='1049'> +1.4594000e+02 </wgt>
<wgt id='1050'> +1.4932000e+02 </wgt>
<wgt id='1051'> +1.5630000e+02 </wgt>
<wgt id='1052'> +1.5297000e+02 </wgt>
<wgt id='1053'> +1.5293000e+02 </wgt>
<wgt id='1054'> +1.5269000e+02 </wgt>
<wgt id='1055'> +1.5501000e+02 </wgt>
<wgt id='1056'> +1.5226000e+02 </wgt>
<wgt id='1057'> +1.5290000e+02 </wgt>
<wgt id='1058'> +1.4684000e+02 </wgt>
<wgt id='1059'> +1.5308000e+02 </wgt>
<wgt id='1060'> +1.5043000e+02 </wgt>
<wgt id='1061'> +1.5321000e+02 </wgt>
<wgt id='1062'> +1.5363000e+02 </wgt>
<wgt id='1063'> +1.5119000e+02 </wgt>
<wgt id='1064'> +1.5052000e+02 </wgt>
<wgt id='1065'> +1.4899000e+02 </wgt>
<wgt id='1066'> +1.4366000e+02 </wgt>
<wgt id='1067'> +1.5198000e+02 </wgt>
<wgt id='1068'> +1.5535000e+02 </wgt>
<wgt id='1069'> +1.5982000e+02 </wgt>
<wgt id='1070'> +1.5076000e+02 </wgt>
<wgt id='1071'> +1.5314000e+02 </wgt>
<wgt id='1072'> +1.5391000e+02 </wgt>
<wgt id='1073'> +1.5331000e+02 </wgt>
<wgt id='1074'> +1.4931000e+02 </wgt>
<wgt id='1075'> +1.4113000e+02 </wgt>
<wgt id='1076'> +1.5387000e+02 </wgt>
<wgt id='1077'> +1.4701000e+02 </wgt>
<wgt id='1078'> +1.5167000e+02 </wgt>
<wgt id='1079'> +1.5369000e+02 </wgt>
<wgt id='1080'> +1.5271000e+02 </wgt>
<wgt id='1081'> +1.4952000e+02 </wgt>
<wgt id='1082'> +1.5703000e+02 </wgt>
<wgt id='1083'> +1.5233000e+02 </wgt>
<wgt id='1084'> +1.5400000e+02 </wgt>
<wgt id='1085'> +1.4811000e+02 </wgt>
<wgt id='1086'> +1.5170000e+02 </wgt>
<wgt id='1087'> +1.4911000e+02 </wgt>
<wgt id='1088'> +1.4783000e+02 </wgt>
<wgt id='1089'> +1.5044000e+02 </wgt>
<wgt id='1090'> +1.5044000e+02 </wgt>
<wgt id='1091'> +1.5007000e+02 </wgt>
<wgt id='1092'> +1.5376000e+02 </wgt>
<wgt id='1093'> +1.4992000e+02 </wgt>
<wgt id='1094'> +1.5833000e+02 </wgt>
<wgt id='1095'> +1.5014000e+02 </wgt>
<wgt id='1096'> +1.4747000e+02 </wgt>
<wgt id='1097'> +1.4479000e+02 </wgt>
<wgt id='1098'> +1.5273000e+02 </wgt>
<wgt id='1099'> +1.5328000e+02 </wgt>
<wgt id='1100'> +1.5709000e+02 </wgt>
<wgt id='1101'> +1.5274000e+02 </wgt>
<wgt id='1102'> +1.4742000e+02 </wgt>
<wgt id='1103'> +1.4941000e+02 </wgt>
<wgt id='1104'> +1.5242000e+02 </wgt>
<wgt id='1105'> +1.5146096e+02 </wgt>
<wgt id='1106'> +6.6139155e+01 </wgt>
<wgt id='1107'> +8.8448282e+01 </wgt>
<wgt id='1108'> +8.0810259e+01 </wgt>
<wgt id='1109'> +7.0572923e+01 </wgt>
<wgt id='1110'> +9.4385311e+01 </wgt>
<wgt id='1111'> +6.9298777e+01 </wgt>
<wgt id='1112'> +6.0523092e+01 </wgt>
<wgt id='1113'> +8.0934805e+01 </wgt>
<wgt id='1114'> +7.8749201e+01 </wgt>
<wgt id='1115'> +8.7269584e+01 </wgt>
<wgt id='1116'> +7.9079059e+01 </wgt>
<wgt id='1117'> +8.0732573e+01 </wgt>
<wgt id='1118'> +8.0136309e+01 </wgt>
<wgt id='1119'> +7.6217815e+01 </wgt>
<wgt id='1120'> +7.9963286e+01 </wgt>
<wgt id='1121'> +7.7959738e+01 </wgt>
<wgt id='1122'> +7.6321100e+01 </wgt>
<wgt id='1123'> +7.6493812e+01 </wgt>
<wgt id='1124'> +7.7934801e+01 </wgt>
<wgt id='1125'> +7.9391079e+01 </wgt>
<wgt id='1126'> +7.5628212e+01 </wgt>
<wgt id='1127'> +7.6975381e+01 </wgt>
<wgt id='1128'> +7.8795558e+01 </wgt>
<wgt id='1129'> +8.0366498e+01 </wgt>
<wgt id='1130'> +7.8519438e+01 </wgt>
<wgt id='1131'> +8.1452548e+01 </wgt>
<wgt id='1132'> +7.7430796e+01 </wgt>
<wgt id='1133'> +7.7885467e+01 </wgt>
<wgt id='1134'> +7.4952473e+01 </wgt>
<wgt id='1135'> +7.8517729e+01 </wgt>
<wgt id='1136'> +8.1986167e+01 </wgt>
<wgt id='1137'> +7.9619999e+01 </wgt>
<wgt id='1138'> +7.7921439e+01 </wgt>
<wgt id='1139'> +7.6907705e+01 </wgt>
<wgt id='1140'> +8.0368472e+01 </wgt>
<wgt id='1141'> +8.3323081e+01 </wgt>
<wgt id='1142'> +7.6980208e+01 </wgt>
<wgt id='1143'> +7.9062391e+01 </wgt>
<wgt id='1144'> +7.9635051e+01 </wgt>
<wgt id='1145'> +8.1544168e+01 </wgt>
<wgt id='1146'> +7.7799962e+01 </wgt>
<wgt id='1147'> +8.0802888e+01 </wgt>
<wgt id='1148'> +7.6578671e+01 </wgt>
<wgt id='1149'> +8.1779356e+01 </wgt>
<wgt id='1150'> +8.0354323e+01 </wgt>
<wgt id='1151'> +7.9848060e+01 </wgt>
<wgt id='1152'> +7.7395129e+01 </wgt>
<wgt id='1153'> +7.7492076e+01 </wgt>
<wgt id='1154'> +7.9208653e+01 </wgt>
<wgt id='1155'> +7.9974775e+01 </wgt>
<wgt id='1156'> +7.7521777e+01 </wgt>
<wgt id='1157'> +8.0578369e+01 </wgt>
<wgt id='1158'> +7.9622908e+01 </wgt>
<wgt id='1159'> +7.8816079e+01 </wgt>
<wgt id='1160'> +8.0467392e+01 </wgt>
<wgt id='1161'> +7.8611994e+01 </wgt>
<wgt id='1162'> +7.5097854e+01 </wgt>
<wgt id='1163'> +7.9204676e+01 </wgt>
<wgt id='1164'> +7.9143135e+01 </wgt>
<wgt id='1165'> +7.6557086e+01 </wgt>
<wgt id='1166'> +7.7388350e+01 </wgt>
<wgt id='1167'> +7.7612595e+01 </wgt>
<wgt id='1168'> +7.9973676e+01 </wgt>
<wgt id='1169'> +8.1272835e+01 </wgt>
<wgt id='1170'> +7.9835627e+01 </wgt>
<wgt id='1171'> +8.1164224e+01 </wgt>
<wgt id='1172'> +7.8262129e+01 </wgt>
<wgt id='1173'> +7.9191414e+01 </wgt>
<wgt id='1174'> +8.1285697e+01 </wgt>
<wgt id='1175'> +8.0828213e+01 </wgt>
<wgt id='1176'> +7.6911077e+01 </wgt>
<wgt id='1177'> +7.9264291e+01 </wgt>
<wgt id='1178'> +7.6014269e+01 </wgt>
<wgt id='1179'> +7.9063569e+01 </wgt>
<wgt id='1180'> +7.7500857e+01 </wgt>
<wgt id='1181'> +7.8771331e+01 </wgt>
<wgt id='1182'> +8.0054626e+01 </wgt>
<wgt id='1183'> +7.8428287e+01 </wgt>
<wgt id='1184'> +7.6908746e+01 </wgt>
<wgt id='1185'> +7.8381467e+01 </wgt>
<wgt id='1186'> +7.6473070e+01 </wgt>
<wgt id='1187'> +7.4333842e+01 </wgt>
<wgt id='1188'> +7.6677215e+01 </wgt>
<wgt id='1189'> +7.5037651e+01 </wgt>
<wgt id='1190'> +8.2951223e+01 </wgt>
<wgt id='1191'> +7.8470486e+01 </wgt>
<wgt id='1192'> +7.8569757e+01 </wgt>
<wgt id='1193'> +7.7555334e+01 </wgt>
<wgt id='1194'> +7.8179315e+01 </wgt>
<wgt id='1195'> +7.9648010e+01 </wgt>
<wgt id='1196'> +7.8519438e+01 </wgt>
<wgt id='1197'> +7.7410144e+01 </wgt>
<wgt id='1198'> +7.7580471e+01 </wgt>
<wgt id='1199'> +7.9528177e+01 </wgt>
<wgt id='1200'> +8.0189142e+01 </wgt>
<wgt id='1201'> +7.7762880e+01 </wgt>
<wgt id='1202'> +8.1198424e+01 </wgt>
<wgt id='1203'> +7.4233936e+01 </wgt>
<wgt id='1204'> +7.6730636e+01 </wgt>
<wgt id='1205'> +7.9024842e+01 </wgt>
<wgt id='1206'> +7.4929086e+01 </wgt>
<wgt id='1207'> +7.7420316e+01 </wgt>
<wgt id='1208'> +7.7549612e+01 </wgt>
<wgt id='1209'> +7.9623053e+01 </wgt>
<wgt id='1210'> +7.8699690e+01 </wgt>
<wgt id='1211'> +8.0685591e+01 </wgt>
<wgt id='1212'> +7.9765982e+01 </wgt>
<wgt id='1213'> +8.0861947e+01 </wgt>
<wgt id='1214'> +8.0195661e+01 </wgt>
<wgt id='1215'> +7.5389625e+01 </wgt>
<wgt id='1216'> +7.9881250e+01 </wgt>
<wgt id='1217'> +8.0003230e+01 </wgt>
<wgt id='1218'> +7.9743618e+01 </wgt>
<wgt id='1219'> +7.9945967e+01 </wgt>
<wgt id='1220'> +8.0163644e+01 </wgt>
<wgt id='1221'> +8.0026952e+01 </wgt>
<wgt id='1222'> +7.9835255e+01 </wgt>
<wgt id='1223'> +7.9943077e+01 </wgt>
<wgt id='1224'> +7.9736405e+01 </wgt>
<wgt id='1225'> +7.9854521e+01 </wgt>
<wgt id='1226'> +7.9330902e+01 </wgt>
<wgt id='1227'> +7.9998269e+01 </wgt>
<wgt id='1228'> +8.0279325e+01 </wgt>
<wgt id='1229'> +7.9692320e+01 </wgt>
<wgt id='1230'> +8.0365787e+01 </wgt>
<wgt id='1231'> +7.9680684e+01 </wgt>
<wgt id='1232'> +8.0173841e+01 </wgt>
<wgt id='1233'> +7.9825807e+01 </wgt>
<wgt id='1234'> +8.0061002e+01 </wgt>
<wgt id='1235'> +7.9738092e+01 </wgt>
<wgt id='1236'> +7.9631498e+01 </wgt>
<wgt id='1237'> +8.0217164e+01 </wgt>
<wgt id='1238'> +7.9915285e+01 </wgt>
<wgt id='1239'> +7.9856747e+01 </wgt>
<wgt id='1240'> +8.0014589e+01 </wgt>
<wgt id='1241'> +7.9594998e+01 </wgt>
<wgt id='1242'> +7.9765900e+01 </wgt>
<wgt id='1243'> +8.0129952e+01 </wgt>
<wgt id='1244'> +7.9982736e+01 </wgt>
<wgt id='1245'> +7.9921428e+01 </wgt>
<wgt id='1246'> +7.9473965e+01 </wgt>
<wgt id='1247'> +8.0390155e+01 </wgt>
<wgt id='1248'> +7.9397736e+01 </wgt>
<wgt id='1249'> +8.0319039e+01 </wgt>
<wgt id='1250'> +7.9819770e+01 </wgt>
<wgt id='1251'> +7.9659740e+01 </wgt>
<wgt id='1252'> +7.9480459e+01 </wgt>
<wgt id='1253'> +7.9537842e+01 </wgt>
<wgt id='1254'> +7.9527688e+01 </wgt>
<wgt id='1255'> +7.9773776e+01 </wgt>
<wgt id='1256'> +7.9807286e+01 </wgt>
<wgt id='1257'> +7.9524457e+01 </wgt>
<wgt id='1258'> +7.9714472e+01 </wgt>
<wgt id='1259'> +7.9976717e+01 </wgt>
<wgt id='1260'> +7.9632148e+01 </wgt>
<wgt id='1261'> +7.9791798e+01 </wgt>
<wgt id='1262'> +7.9784724e+01 </wgt>
<wgt id='1263'> +7.9882360e+01 </wgt>
<wgt id='1264'> +7.9959701e+01 </wgt>
<wgt id='1265'> +7.9932693e+01 </wgt>
<wgt id='1266'> +8.0019513e+01 </wgt>
<wgt id='1267'> +8.0130017e+01 </wgt>
<wgt id='1268'> +7.9852958e+01 </wgt>
<wgt id='1269'> +7.9830585e+01 </wgt>
<wgt id='1270'> +7.9897637e+01 </wgt>
<wgt id='1271'> +7.9850304e+01 </wgt>
<wgt id='1272'> +8.0041740e+01 </wgt>
<wgt id='1273'> +7.9737559e+01 </wgt>
<wgt id='1274'> +7.9826755e+01 </wgt>
<wgt id='1275'> +8.0033682e+01 </wgt>
<wgt id='1276'> +7.9958000e+01 </wgt>
<wgt id='1277'> +7.9884199e+01 </wgt>
<wgt id='1278'> +7.9900737e+01 </wgt>
<wgt id='1279'> +7.9983723e+01 </wgt>
<wgt id='1280'> +7.9810945e+01 </wgt>
<wgt id='1281'> +7.9894526e+01 </wgt>
<wgt id='1282'> +8.0017762e+01 </wgt>
<wgt id='1283'> +7.9786396e+01 </wgt>
<wgt id='1284'> +7.9795585e+01 </wgt>
<wgt id='1285'> +7.9915137e+01 </wgt>
<wgt id='1286'> +7.9553509e+01 </wgt>
<wgt id='1287'> +7.9830457e+01 </wgt>
<wgt id='1288'> +7.9876229e+01 </wgt>
<wgt id='1289'> +7.9774662e+01 </wgt>
<wgt id='1290'> +8.0045952e+01 </wgt>
<wgt id='1291'> +7.9781904e+01 </wgt>
<wgt id='1292'> +7.9920740e+01 </wgt>
<wgt id='1293'> +7.9861095e+01 </wgt>
<wgt id='1294'> +7.9860193e+01 </wgt>
<wgt id='1295'> +7.9910087e+01 </wgt>
<wgt id='1296'> +7.9978629e+01 </wgt>
<wgt id='1297'> +7.9844820e+01 </wgt>
<wgt id='1298'> +7.9782110e+01 </wgt>
<wgt id='1299'> +7.9946719e+01 </wgt>
<wgt id='1300'> +7.9817978e+01 </wgt>
<wgt id='1301'> +7.9843121e+01 </wgt>
<wgt id='1302'> +7.9927436e+01 </wgt>
<wgt id='1303'> +7.9845136e+01 </wgt>
<wgt id='1304'> +7.9885142e+01 </wgt>
<wgt id='1305'> +7.9667365e+01 </wgt>
<wgt id='1306'> +7.9961107e+01 </wgt>
<wgt id='1307'> +7.9864320e+01 </wgt>
<wgt id='1308'> +7.9838722e+01 </wgt>
<wgt id='1309'> +7.9986205e+01 </wgt>
<wgt id='1310'> +7.9833228e+01 </wgt>
<wgt id='1311'> +7.9939101e+01 </wgt>
<wgt id='1312'> +7.9949878e+01 </wgt>
<wgt id='1313'> +7.9914037e+01 </wgt>
<wgt id='1314'> +7.9803790e+01 </wgt>
<wgt id='1315'> +7.9905635e+01 </wgt>
<wgt id='1316'> +7.9810554e+01 </wgt>
<wgt id='1317'> +7.8648539e+01 </wgt>
<wgt id='1318'> +8.1371389e+01 </wgt>
<wgt id='1319'> +9.6767511e+01 </wgt>
<wgt id='1320'> +7.6325779e+01 </wgt>
<wgt id='1321'> +7.6798912e+01 </wgt>
<wgt id='1322'> +7.6471200e+01 </wgt>
<wgt id='1323'> +7.6453860e+01 </wgt>
<wgt id='1324'> +7.6142164e+01 </wgt>
<wgt id='1325'> +7.6906744e+01 </wgt>
<wgt id='1326'> +7.6136114e+01 </wgt>
<wgt id='1327'> +7.7176292e+01 </wgt>
<wgt id='1328'> +7.6268340e+01 </wgt>
<wgt id='1329'> +7.4776604e+01 </wgt>
<wgt id='1330'> +7.7538786e+01 </wgt>
<wgt id='1331'> +7.5420137e+01 </wgt>
<wgt id='1332'> +7.7194251e+01 </wgt>
<wgt id='1333'> +7.4284296e+01 </wgt>
<wgt id='1334'> +7.6999127e+01 </wgt>
<wgt id='1335'> +7.8252054e+01 </wgt>
<wgt id='1336'> +7.4013337e+01 </wgt>
<wgt id='1337'> +7.7899586e+01 </wgt>
<wgt id='1338'> +7.4551086e+01 </wgt>
<wgt id='1339'> +7.6734415e+01 </wgt>
<wgt id='1340'> +7.5799874e+01 </wgt>
<wgt id='1341'> +7.6309316e+01 </wgt>
<wgt id='1342'> +7.6186975e+01 </wgt>
<wgt id='1343'> +7.6268246e+01 </wgt>
<wgt id='1344'> +7.6257080e+01 </wgt>
<wgt id='1345'> +7.4862240e+01 </wgt>
<wgt id='1346'> +7.7597457e+01 </wgt>
<wgt id='1347'> +7.6278047e+01 </wgt>
<wgt id='1348'> +7.6342368e+01 </wgt>
<wgt id='1349'> +7.5608474e+01 </wgt>
<wgt id='1350'> +7.6571914e+01 </wgt>
<wgt id='1351'> +7.5567289e+01 </wgt>
<wgt id='1352'> +7.7285169e+01 </wgt>
<wgt id='1353'> +7.6382027e+01 </wgt>
<wgt id='1354'> +7.6190529e+01 </wgt>
<wgt id='1355'> +7.6442504e+01 </wgt>
<wgt id='1356'> +7.6315483e+01 </wgt>
<wgt id='1357'> +7.6676324e+01 </wgt>
<wgt id='1358'> +7.5364091e+01 </wgt>
<wgt id='1359'> +7.5118951e+01 </wgt>
<wgt id='1360'> +7.6698574e+01 </wgt>
<wgt id='1361'> +7.6276371e+01 </wgt>
<wgt id='1362'> +7.6588462e+01 </wgt>
<wgt id='1363'> +7.6774095e+01 </wgt>
<wgt id='1364'> +7.5599086e+01 </wgt>
<wgt id='1365'> +7.5466643e+01 </wgt>
<wgt id='1366'> +7.4998103e+01 </wgt>
<wgt id='1367'> +7.4693053e+01 </wgt>
<wgt id='1368'> +7.6533554e+01 </wgt>
<wgt id='1369'> +7.5365170e+01 </wgt>
<wgt id='1370'> +7.5735595e+01 </wgt>
<wgt id='1371'> +7.5626639e+01 </wgt>
<wgt id='1372'> +7.5033703e+01 </wgt>
<wgt id='1373'> +7.5076337e+01 </wgt>
<wgt id='1374'> +7.6123303e+01 </wgt>
<wgt id='1375'> +7.5560189e+01 </wgt>
<wgt id='1376'> +7.7663323e+01 </wgt>
<wgt id='1377'> +7.4698123e+01 </wgt>
<wgt id='1378'> +7.7829087e+01 </wgt>
<wgt id='1379'> +7.5237800e+01 </wgt>
<wgt id='1380'> +7.3778314e+01 </wgt>
<wgt id='1381'> +7.6642013e+01 </wgt>
<wgt id='1382'> +7.3701968e+01 </wgt>
<wgt id='1383'> +7.6352005e+01 </wgt>
<wgt id='1384'> +7.6265928e+01 </wgt>
<wgt id='1385'> +9.2000761e+01 </wgt>
<wgt id='1386'> +9.2594563e+01 </wgt>
<wgt id='1387'> +9.1332329e+01 </wgt>
<wgt id='1388'> +9.1939544e+01 </wgt>
<wgt id='1389'> +9.2070597e+01 </wgt>
<wgt id='1390'> +9.2385917e+01 </wgt>
<wgt id='1391'> +9.1536405e+01 </wgt>
<wgt id='1392'> +9.2054076e+01 </wgt>
<wgt id='1393'> +9.1952026e+01 </wgt>
<wgt id='1394'> +9.1962638e+01 </wgt>
<wgt id='1395'> +9.2036665e+01 </wgt>
<wgt id='1396'> +9.1492085e+01 </wgt>
<wgt id='1397'> +9.2256056e+01 </wgt>
<wgt id='1398'> +9.1830502e+01 </wgt>
<wgt id='1399'> +9.2118333e+01 </wgt>
<wgt id='1400'> +9.2459402e+01 </wgt>
<wgt id='1401'> +9.1633493e+01 </wgt>
<wgt id='1402'> +9.2305991e+01 </wgt>
<wgt id='1403'> +9.1856661e+01 </wgt>
<wgt id='1404'> +9.2658202e+01 </wgt>
<wgt id='1405'> +9.1678202e+01 </wgt>
<wgt id='1406'> +9.1913746e+01 </wgt>
<wgt id='1407'> +9.2136853e+01 </wgt>
<wgt id='1408'> +9.1418338e+01 </wgt>
<wgt id='1409'> +9.3159689e+01 </wgt>
<wgt id='1410'> +9.2376348e+01 </wgt>
<wgt id='1411'> +9.0990503e+01 </wgt>
<wgt id='1412'> +9.2667140e+01 </wgt>
<wgt id='1413'> +9.1152455e+01 </wgt>
<wgt id='1414'> +9.1487521e+01 </wgt>
<wgt id='1415'> +9.2390882e+01 </wgt>
<wgt id='1416'> +9.2091002e+01 </wgt>
<wgt id='1417'> +9.2074429e+01 </wgt>
<wgt id='1418'> +9.2276104e+01 </wgt>
<wgt id='1419'> +9.1419076e+01 </wgt>
<wgt id='1420'> +9.1784826e+01 </wgt>
<wgt id='1421'> +9.1774539e+01 </wgt>
<wgt id='1422'> +9.2023832e+01 </wgt>
<wgt id='1423'> +9.2026186e+01 </wgt>
<wgt id='1424'> +9.2284649e+01 </wgt>
<wgt id='1425'> +9.1345400e+01 </wgt>
<wgt id='1426'> +9.2808089e+01 </wgt>
<wgt id='1427'> +9.1955959e+01 </wgt>
<wgt id='1428'> +9.1984167e+01 </wgt>
<wgt id='1429'> +9.1064066e+01 </wgt>
<wgt id='1430'> +9.2736334e+01 </wgt>
<wgt id='1431'> +9.2238448e+01 </wgt>
<wgt id='1432'> +9.2419000e+01 </wgt>
<wgt id='1433'> +9.2688454e+01 </wgt>
<wgt id='1434'> +9.2016289e+01 </wgt>
<wgt id='1435'> +9.2417390e+01 </wgt>
<wgt id='1436'> +7.1963720e+01 </wgt>
<wgt id='1437'> +7.2026061e+01 </wgt>
<wgt id='1438'> +7.1740254e+01 </wgt>
<wgt id='1439'> +7.1964356e+01 </wgt>
<wgt id='1440'> +7.1999216e+01 </wgt>
<wgt id='1441'> +7.2248637e+01 </wgt>
<wgt id='1442'> +7.1841351e+01 </wgt>
<wgt id='1443'> +7.2165444e+01 </wgt>
<wgt id='1444'> +7.1622381e+01 </wgt>
<wgt id='1445'> +7.1585205e+01 </wgt>
<wgt id='1446'> +7.2185872e+01 </wgt>
<wgt id='1447'> +7.2014497e+01 </wgt>
<wgt id='1448'> +7.1833321e+01 </wgt>
<wgt id='1449'> +7.2210076e+01 </wgt>
<wgt id='1450'> +7.2029238e+01 </wgt>
<wgt id='1451'> +7.1985639e+01 </wgt>
<wgt id='1452'> +7.1830034e+01 </wgt>
<wgt id='1453'> +7.1912482e+01 </wgt>
<wgt id='1454'> +7.2086897e+01 </wgt>
<wgt id='1455'> +7.1921305e+01 </wgt>
<wgt id='1456'> +7.1955572e+01 </wgt>
<wgt id='1457'> +7.2036646e+01 </wgt>
<wgt id='1458'> +7.1904782e+01 </wgt>
<wgt id='1459'> +7.2184321e+01 </wgt>
<wgt id='1460'> +7.2065854e+01 </wgt>
<wgt id='1461'> +7.1902208e+01 </wgt>
<wgt id='1462'> +7.2182556e+01 </wgt>
<wgt id='1463'> +7.1446320e+01 </wgt>
<wgt id='1464'> +7.2022689e+01 </wgt>
<wgt id='1465'> +7.6391246e+01 </wgt>
<wgt id='1466'> +7.6158276e+01 </wgt>
<wgt id='1467'> +7.6024813e+01 </wgt>
<wgt id='1468'> +7.6190145e+01 </wgt>
<wgt id='1469'> +7.6949533e+01 </wgt>
<wgt id='1470'> +7.6008153e+01 </wgt>
<wgt id='1471'> +7.6127384e+01 </wgt>
<wgt id='1472'> +7.5653099e+01 </wgt>
<wgt id='1473'> +7.6750893e+01 </wgt>
<wgt id='1474'> +7.6914831e+01 </wgt>
<wgt id='1475'> +7.5924196e+01 </wgt>
<wgt id='1476'> +7.6784175e+01 </wgt>
<wgt id='1477'> +7.5688547e+01 </wgt>
<wgt id='1478'> +7.5829764e+01 </wgt>
<wgt id='1479'> +7.6145985e+01 </wgt>
<wgt id='1480'> +7.5887150e+01 </wgt>
<wgt id='1481'> +7.6181110e+01 </wgt>
<wgt id='1482'> +7.5734583e+01 </wgt>
<wgt id='1483'> +7.6441691e+01 </wgt>
<wgt id='1484'> +7.6764100e+01 </wgt>
<wgt id='1485'> +7.5714227e+01 </wgt>
<wgt id='1486'> +7.6270422e+01 </wgt>
<wgt id='1487'> +7.6056040e+01 </wgt>
<wgt id='1488'> +7.6063653e+01 </wgt>
<wgt id='1489'> +7.6576182e+01 </wgt>
<wgt id='1490'> +7.6010870e+01 </wgt>
<wgt id='1491'> +7.5841567e+01 </wgt>
<wgt id='1492'> +7.6019922e+01 </wgt>
<wgt id='1493'> +7.6479671e+01 </wgt>
<wgt id='1494'> +7.5758236e+01 </wgt>
<wgt id='1495'> +7.6189732e+01 </wgt>
<wgt id='1496'> +7.6593946e+01 </wgt>
<wgt id='1497'> +7.6059693e+01 </wgt>
<wgt id='1498'> +7.6233645e+01 </wgt>
<wgt id='1499'> +7.6423776e+01 </wgt>
<wgt id='1500'> +7.6541458e+01 </wgt>
<wgt id='1501'> +7.6482650e+01 </wgt>
<wgt id='1502'> +7.5968350e+01 </wgt>
<wgt id='1503'> +7.6246637e+01 </wgt>
<wgt id='1504'> +7.6125690e+01 </wgt>
<wgt id='1505'> +7.6374164e+01 </wgt>
<wgt id='1506'> +7.6308703e+01 </wgt>
<wgt id='1507'> +7.6329506e+01 </wgt>
<wgt id='1508'> +7.6236032e+01 </wgt>
<wgt id='1509'> +7.6007700e+01 </wgt>
<wgt id='1510'> +7.6247104e+01 </wgt>
<wgt id='1511'> +7.6390362e+01 </wgt>
<wgt id='1512'> +7.6358750e+01 </wgt>
<wgt id='1513'> +7.5962380e+01 </wgt>
<wgt id='1514'> +7.5945333e+01 </wgt>
<wgt id='1515'> +7.6170271e+01 </wgt>
<wgt id='1516'> +7.6240732e+01 </wgt>
<wgt id='1517'> +7.6022718e+01 </wgt>
<wgt id='1518'> +7.6538016e+01 </wgt>
<wgt id='1519'> +7.6058000e+01 </wgt>
<wgt id='1520'> +7.6083005e+01 </wgt>
<wgt id='1521'> +7.6349328e+01 </wgt>
<wgt id='1522'> +7.6088207e+01 </wgt>
<wgt id='1523'> +7.5973861e+01 </wgt>
<wgt id='1524'> +7.6229609e+01 </wgt>
<wgt id='1525'> +7.6077101e+01 </wgt>
<wgt id='1526'> +7.6081596e+01 </wgt>
<wgt id='1527'> +7.6359346e+01 </wgt>
<wgt id='1528'> +7.5958161e+01 </wgt>
<wgt id='1529'> +7.6025760e+01 </wgt>
<wgt id='1530'> +7.6248286e+01 </wgt>
<wgt id='1531'> +7.6118257e+01 </wgt>
<wgt id='1532'> +7.5974591e+01 </wgt>
<wgt id='1533'> +7.6192675e+01 </wgt>
<wgt id='1534'> +7.6223520e+01 </wgt>
<wgt id='1535'> +7.6217859e+01 </wgt>
<wgt id='1536'> +7.6131235e+01 </wgt>
<wgt id='1537'> +7.6146553e+01 </wgt>
<wgt id='1538'> +7.6153762e+01 </wgt>
<wgt id='1539'> +7.6133452e+01 </wgt>
<wgt id='1540'> +7.6205816e+01 </wgt>
<wgt id='1541'> +7.6074522e+01 </wgt>
<wgt id='1542'> +7.6199938e+01 </wgt>
<wgt id='1543'> +7.6045435e+01 </wgt>
<wgt id='1544'> +7.6184346e+01 </wgt>
<wgt id='1545'> +7.6189666e+01 </wgt>
<wgt id='1546'> +7.6139012e+01 </wgt>
<wgt id='1547'> +7.6072973e+01 </wgt>
<wgt id='1548'> +7.6116379e+01 </wgt>
<wgt id='1549'> +7.6147259e+01 </wgt>
<wgt id='1550'> +7.6146354e+01 </wgt>
<wgt id='1551'> +7.6245229e+01 </wgt>
<wgt id='1552'> +7.6164778e+01 </wgt>
<wgt id='1553'> +7.6136391e+01 </wgt>
<wgt id='1554'> +7.6168548e+01 </wgt>
<wgt id='1555'> +7.6192184e+01 </wgt>
<wgt id='1556'> +7.6152333e+01 </wgt>
<wgt id='1557'> +7.6181688e+01 </wgt>
<wgt id='1558'> +7.6139006e+01 </wgt>
<wgt id='1559'> +7.6136825e+01 </wgt>
<wgt id='1560'> +7.6177857e+01 </wgt>
<wgt id='1561'> +7.6160601e+01 </wgt>
<wgt id='1562'> +7.6179040e+01 </wgt>
<wgt id='1563'> +7.6161687e+01 </wgt>
<wgt id='1564'> +7.6200055e+01 </wgt>
<wgt id='1565'> +7.6172276e+01 </wgt>
<wgt id='1566'> +7.6137019e+01 </wgt>
<wgt id='1567'> +7.4788001e+01 </wgt>
<wgt id='1568'> +7.7271191e+01 </wgt>
<wgt id='1569'> +7.5713239e+01 </wgt>
<wgt id='1570'> +7.5913037e+01 </wgt>
<wgt id='1571'> +7.5758426e+01 </wgt>
<wgt id='1572'> +7.5624574e+01 </wgt>
<wgt id='1573'> +7.6014095e+01 </wgt>
<wgt id='1574'> +7.6152810e+01 </wgt>
<wgt id='1575'> +7.5812565e+01 </wgt>
<wgt id='1576'> +7.5888687e+01 </wgt>
<wgt id='1577'> +7.5872083e+01 </wgt>
<wgt id='1578'> +7.5672717e+01 </wgt>
<wgt id='1579'> +7.5558015e+01 </wgt>
<wgt id='1580'> +7.6439218e+01 </wgt>
<wgt id='1581'> +7.5161678e+01 </wgt>
<wgt id='1582'> +7.5417122e+01 </wgt>
<wgt id='1583'> +7.5263161e+01 </wgt>
<wgt id='1584'> +7.6133225e+01 </wgt>
<wgt id='1585'> +7.5572405e+01 </wgt>
<wgt id='1586'> +7.5649508e+01 </wgt>
<wgt id='1587'> +7.6241305e+01 </wgt>
<wgt id='1588'> +7.4911354e+01 </wgt>
<wgt id='1589'> +7.5713192e+01 </wgt>
<wgt id='1590'> +7.5820388e+01 </wgt>
<wgt id='1591'> +7.5085105e+01 </wgt>
<wgt id='1592'> +7.5707639e+01 </wgt>
<wgt id='1593'> +7.5996027e+01 </wgt>
<wgt id='1594'> +7.5742763e+01 </wgt>
<wgt id='1595'> +7.5528797e+01 </wgt>
<wgt id='1596'> +7.5615421e+01 </wgt>
<wgt id='1597'> +7.5675963e+01 </wgt>
<wgt id='1598'> +7.5664562e+01 </wgt>
<wgt id='1599'> +7.5580031e+01 </wgt>
<wgt id='1600'> +7.5452378e+01 </wgt>
<wgt id='1601'> +7.5645352e+01 </wgt>
<wgt id='1602'> +7.5415570e+01 </wgt>
<wgt id='1603'> +7.5489892e+01 </wgt>
<wgt id='1604'> +7.5880141e+01 </wgt>
<wgt id='1605'> +7.6096910e+01 </wgt>
<wgt id='1606'> +7.5690459e+01 </wgt>
<wgt id='1607'> +7.5640613e+01 </wgt>
<wgt id='1608'> +7.5910892e+01 </wgt>
<wgt id='1609'> +7.5372621e+01 </wgt>
<wgt id='1610'> +7.5652262e+01 </wgt>
<wgt id='1611'> +7.5659749e+01 </wgt>
<wgt id='1612'> +7.5694168e+01 </wgt>
<wgt id='1613'> +7.5610371e+01 </wgt>
<wgt id='1614'> +7.5634903e+01 </wgt>
<wgt id='1615'> +7.5278033e+01 </wgt>
<wgt id='1616'> +7.5054292e+01 </wgt>
<wgt id='1617'> +7.5559050e+01 </wgt>
<wgt id='1618'> +7.5580487e+01 </wgt>
<wgt id='1619'> +7.5640105e+01 </wgt>
<wgt id='1620'> +7.5572485e+01 </wgt>
<wgt id='1621'> +7.5736436e+01 </wgt>
<wgt id='1622'> +7.5754211e+01 </wgt>
<wgt id='1623'> +7.5503822e+01 </wgt>
<wgt id='1624'> +7.5741759e+01 </wgt>
<wgt id='1625'> +7.6071560e+01 </wgt>
<wgt id='1626'> +7.5684238e+01 </wgt>
<wgt id='1627'> +7.5601878e+01 </wgt>
<wgt id='1628'> +7.5634375e+01 </wgt>
<wgt id='1629'> +7.5757151e+01 </wgt>
<wgt id='1630'> +7.5764305e+01 </wgt>
<wgt id='1631'> +7.5709499e+01 </wgt>
<wgt id='1632'> +7.5640500e+01 </wgt>
<wgt id='1633'> +7.5617857e+01 </wgt>
<wgt id='1634'> +7.5927609e+01 </wgt>
<wgt id='1635'> +7.5639769e+01 </wgt>
<wgt id='1636'> +7.5758180e+01 </wgt>
<wgt id='1637'> +7.5738375e+01 </wgt>
<wgt id='1638'> +7.5831700e+01 </wgt>
<wgt id='1639'> +7.5714431e+01 </wgt>
<wgt id='1640'> +7.5682639e+01 </wgt>
<wgt id='1641'> +7.5787240e+01 </wgt>
<wgt id='1642'> +7.5700887e+01 </wgt>
<wgt id='1643'> +7.5753675e+01 </wgt>
<wgt id='1644'> +7.5661694e+01 </wgt>
<wgt id='1645'> +7.5664282e+01 </wgt>
<wgt id='1646'> +7.5810249e+01 </wgt>
<wgt id='1647'> +7.5690290e+01 </wgt>
<wgt id='1648'> +7.5646545e+01 </wgt>
<wgt id='1649'> +7.5711359e+01 </wgt>
<wgt id='1650'> +7.5729549e+01 </wgt>
<wgt id='1651'> +7.5699917e+01 </wgt>
<wgt id='1652'> +7.5767560e+01 </wgt>
<wgt id='1653'> +7.5718755e+01 </wgt>
<wgt id='1654'> +7.5693030e+01 </wgt>
<wgt id='1655'> +7.5720339e+01 </wgt>
<wgt id='1656'> +7.5660552e+01 </wgt>
<wgt id='1657'> +7.5727863e+01 </wgt>
<wgt id='1658'> +7.5661813e+01 </wgt>
<wgt id='1659'> +7.5741894e+01 </wgt>
<wgt id='1660'> +7.5697600e+01 </wgt>
<wgt id='1661'> +7.5733121e+01 </wgt>
<wgt id='1662'> +7.5685139e+01 </wgt>
<wgt id='1663'> +7.5735230e+01 </wgt>
<wgt id='1664'> +7.5750497e+01 </wgt>
<wgt id='1665'> +7.5676109e+01 </wgt>
<wgt id='1666'> +7.5711309e+01 </wgt>
<wgt id='1667'> +7.5710835e+01 </wgt>
<wgt id='1668'> +7.5694201e+01 </wgt>
<wgt id='1669'> +7.5715679e+01 </wgt>
<wgt id='1670'> +7.4750565e+01 </wgt>
<wgt id='1671'> +7.6688373e+01 </wgt>
<wgt id='1672'> +7.6156350e+01 </wgt>
<wgt id='1673'> +7.6838309e+01 </wgt>
<wgt id='1674'> +7.5232199e+01 </wgt>
<wgt id='1675'> +7.6075158e+01 </wgt>
<wgt id='1676'> +7.7019436e+01 </wgt>
<wgt id='1677'> +7.7085504e+01 </wgt>
<wgt id='1678'> +7.6504476e+01 </wgt>
<wgt id='1679'> +7.6192313e+01 </wgt>
<wgt id='1680'> +7.6174337e+01 </wgt>
<wgt id='1681'> +7.6246038e+01 </wgt>
<wgt id='1682'> +7.6147885e+01 </wgt>
<wgt id='1683'> +7.5939839e+01 </wgt>
<wgt id='1684'> +7.6011888e+01 </wgt>
<wgt id='1685'> +7.6041126e+01 </wgt>
<wgt id='1686'> +7.5759087e+01 </wgt>
<wgt id='1687'> +7.6248081e+01 </wgt>
<wgt id='1688'> +7.6316908e+01 </wgt>
<wgt id='1689'> +7.5525089e+01 </wgt>
<wgt id='1690'> +7.6063939e+01 </wgt>
<wgt id='1691'> +7.6124112e+01 </wgt>
<wgt id='1692'> +7.7019934e+01 </wgt>
<wgt id='1693'> +7.6056705e+01 </wgt>
<wgt id='1694'> +7.6140520e+01 </wgt>
<wgt id='1695'> +7.6207762e+01 </wgt>
<wgt id='1696'> +7.6201230e+01 </wgt>
<wgt id='1697'> +7.6046667e+01 </wgt>
<wgt id='1698'> +7.6100308e+01 </wgt>
<wgt id='1699'> +7.5423264e+01 </wgt>
<wgt id='1700'> +7.6352571e+01 </wgt>
<wgt id='1701'> +7.6195224e+01 </wgt>
<wgt id='1702'> +7.6181657e+01 </wgt>
<wgt id='1703'> +7.4788001e+01 </wgt>
<wgt id='1704'> +7.7271191e+01 </wgt>
<wgt id='1705'> +7.5709557e+01 </wgt>
<wgt id='1706'> +7.6003851e+01 </wgt>
<wgt id='1707'> +7.6478597e+01 </wgt>
<wgt id='1708'> +7.5668098e+01 </wgt>
<wgt id='1709'> +7.5205466e+01 </wgt>
<wgt id='1710'> +7.5102673e+01 </wgt>
<wgt id='1711'> +7.5734756e+01 </wgt>
<wgt id='1712'> +7.5609735e+01 </wgt>
<wgt id='1713'> +7.5746484e+01 </wgt>
<wgt id='1714'> +7.4950467e+01 </wgt>
<wgt id='1715'> +7.5946332e+01 </wgt>
<wgt id='1716'> +7.6346338e+01 </wgt>
<wgt id='1717'> +7.5812721e+01 </wgt>
<wgt id='1718'> +7.5896183e+01 </wgt>
<wgt id='1719'> +7.5500536e+01 </wgt>
<wgt id='1720'> +7.6005050e+01 </wgt>
<wgt id='1721'> +7.5737985e+01 </wgt>
<wgt id='1722'> +7.5909392e+01 </wgt>
<wgt id='1723'> +7.5750140e+01 </wgt>
<wgt id='1724'> +7.5967847e+01 </wgt>
<wgt id='1725'> +7.5449606e+01 </wgt>
<wgt id='1726'> +7.5546756e+01 </wgt>
<wgt id='1727'> +7.6395875e+01 </wgt>
<wgt id='1728'> +7.5694665e+01 </wgt>
<wgt id='1729'> +7.5500331e+01 </wgt>
<wgt id='1730'> +7.5649749e+01 </wgt>
<wgt id='1731'> +7.4753045e+01 </wgt>
<wgt id='1732'> +7.5755778e+01 </wgt>
<wgt id='1733'> +7.5838917e+01 </wgt>
<wgt id='1734'> +7.5549344e+01 </wgt>
<wgt id='1735'> +7.6240078e+01 </wgt>
<wgt id='1736'> +7.4750565e+01 </wgt>
<wgt id='1737'> +7.6688373e+01 </wgt>
<wgt id='1738'> +8.6305221e+01 </wgt>
<wgt id='1739'> +8.6420963e+01 </wgt>
<wgt id='1740'> +8.6189734e+01 </wgt>
<wgt id='1741'> +8.6236153e+01 </wgt>
<wgt id='1742'> +8.6373632e+01 </wgt>
<wgt id='1743'> +8.6488876e+01 </wgt>
<wgt id='1744'> +8.6121824e+01 </wgt>
<wgt id='1745'> +8.6057805e+01 </wgt>
<wgt id='1746'> +8.6545580e+01 </wgt>
<wgt id='1747'> +8.6705713e+01 </wgt>
<wgt id='1748'> +8.5905532e+01 </wgt>
<wgt id='1749'> +8.6502918e+01 </wgt>
<wgt id='1750'> +8.6119991e+01 </wgt>
<wgt id='1751'> +8.6230797e+01 </wgt>
<wgt id='1752'> +8.6379306e+01 </wgt>
<wgt id='1753'> +8.6156455e+01 </wgt>
<wgt id='1754'> +8.6349919e+01 </wgt>
<wgt id='1755'> +8.6421316e+01 </wgt>
<wgt id='1756'> +8.6169981e+01 </wgt>
<wgt id='1757'> +8.5956533e+01 </wgt>
<wgt id='1758'> +8.6638712e+01 </wgt>
<wgt id='1759'> +8.7027740e+01 </wgt>
<wgt id='1760'> +8.5506285e+01 </wgt>
<wgt id='1761'> +8.5763412e+01 </wgt>
<wgt id='1762'> +8.6473833e+01 </wgt>
<wgt id='1763'> +8.6120502e+01 </wgt>
<wgt id='1764'> +8.6594459e+01 </wgt>
<wgt id='1765'> +8.5226997e+01 </wgt>
<wgt id='1766'> +8.7218445e+01 </wgt>
<wgt id='1767'> +8.6305221e+01 </wgt>
<wgt id='1768'> +8.7067564e+01 </wgt>
<wgt id='1769'> +8.5388050e+01 </wgt>
<wgt id='1770'> +8.7177644e+01 </wgt>
<wgt id='1771'> +8.5674057e+01 </wgt>
<wgt id='1772'> +8.6409300e+01 </wgt>
<wgt id='1773'> +8.5605951e+01 </wgt>
<wgt id='1774'> +8.5993966e+01 </wgt>
<wgt id='1775'> +8.6607614e+01 </wgt>
<wgt id='1776'> +8.5460592e+01 </wgt>
<wgt id='1777'> +8.7163646e+01 </wgt>
<wgt id='1778'> +8.6565945e+01 </wgt>
<wgt id='1779'> +8.6942859e+01 </wgt>
<wgt id='1780'> +9.1715312e+01 </wgt>
<wgt id='1781'> +8.0826229e+01 </wgt>
<wgt id='1782'> +8.0948880e+01 </wgt>
<wgt id='1783'> +8.0734782e+01 </wgt>
<wgt id='1784'> +8.0722371e+01 </wgt>
<wgt id='1785'> +8.0960930e+01 </wgt>
<wgt id='1786'> +8.0970027e+01 </wgt>
<wgt id='1787'> +8.0713535e+01 </wgt>
<wgt id='1788'> +8.0552670e+01 </wgt>
<wgt id='1789'> +8.1121682e+01 </wgt>
<wgt id='1790'> +8.1126011e+01 </wgt>
<wgt id='1791'> +8.0557941e+01 </wgt>
<wgt id='1792'> +8.0956495e+01 </wgt>
<wgt id='1793'> +8.0727518e+01 </wgt>
<wgt id='1794'> +8.0658793e+01 </wgt>
<wgt id='1795'> +8.1023114e+01 </wgt>
<wgt id='1796'> +8.0711687e+01 </wgt>
<wgt id='1797'> +8.0900475e+01 </wgt>
<wgt id='1798'> +8.0672331e+01 </wgt>
<wgt id='1799'> +8.0997919e+01 </wgt>
<wgt id='1800'> +8.0918842e+01 </wgt>
<wgt id='1801'> +8.0762593e+01 </wgt>
<wgt id='1802'> +7.9775848e+01 </wgt>
<wgt id='1803'> +8.1821738e+01 </wgt>
<wgt id='1804'> +8.0305717e+01 </wgt>
<wgt id='1805'> +8.1379733e+01 </wgt>
<wgt id='1806'> +8.0578400e+01 </wgt>
<wgt id='1807'> +8.0881831e+01 </wgt>
<wgt id='1808'> +8.0399599e+01 </wgt>
<wgt id='1809'> +8.1157633e+01 </wgt>
<wgt id='1810'> +8.0805601e+01 </wgt>
<wgt id='1811'> +8.1639748e+01 </wgt>
<wgt id='1812'> +7.9790417e+01 </wgt>
<wgt id='1813'> +8.1837187e+01 </wgt>
<wgt id='1814'> +8.0156519e+01 </wgt>
<wgt id='1815'> +7.9744709e+01 </wgt>
<wgt id='1816'> +8.1180363e+01 </wgt>
<wgt id='1817'> +8.0572091e+01 </wgt>
<wgt id='1818'> +8.1251371e+01 </wgt>
<wgt id='1819'> +7.9618154e+01 </wgt>
<wgt id='1820'> +8.0864093e+01 </wgt>
<wgt id='1821'> +8.0106438e+01 </wgt>
<wgt id='1822'> +8.2379813e+01 </wgt>
<wgt id='1823'> +8.2153834e+01 </wgt>
<wgt id='1824'> +7.5488191e+01 </wgt>
<wgt id='1825'> +7.5458700e+01 </wgt>
<wgt id='1826'> +7.5429057e+01 </wgt>
<wgt id='1827'> +7.5399380e+01 </wgt>
<wgt id='1828'> +7.5369682e+01 </wgt>
<wgt id='1829'> +7.5340218e+01 </wgt>
<wgt id='1830'> +7.5310223e+01 </wgt>
<wgt id='1831'> +7.5280527e+01 </wgt>
<wgt id='1832'> +7.5251154e+01 </wgt>
<wgt id='1833'> +7.5221485e+01 </wgt>
<wgt id='1834'> +7.5191694e+01 </wgt>
<wgt id='1835'> +7.5162507e+01 </wgt>
<wgt id='1836'> +7.5133043e+01 </wgt>
<wgt id='1837'> +7.5103419e+01 </wgt>
<wgt id='1838'> +7.5073981e+01 </wgt>
<wgt id='1839'> +7.5044045e+01 </wgt>
<wgt id='1840'> +7.5014658e+01 </wgt>
<wgt id='1841'> +7.4984726e+01 </wgt>
<wgt id='1842'> +7.4955317e+01 </wgt>
<wgt id='1843'> +7.4925708e+01 </wgt>
<wgt id='1844'> +7.4896076e+01 </wgt>
<wgt id='1845'> +7.4866489e+01 </wgt>
<wgt id='1846'> +7.4837159e+01 </wgt>
<wgt id='1847'> +7.4807408e+01 </wgt>
<wgt id='1848'> +7.4777509e+01 </wgt>
<wgt id='1849'> +7.4748730e+01 </wgt>
<wgt id='1850'> +7.4718840e+01 </wgt>
<wgt id='1851'> +7.4689475e+01 </wgt>
<wgt id='1852'> +7.4659892e+01 </wgt>
<wgt id='1853'> +7.4630248e+01 </wgt>
<wgt id='1854'> +7.4600778e+01 </wgt>
<wgt id='1855'> +7.5006076e+01 </wgt>
<wgt id='1856'> +7.5192627e+01 </wgt>
<wgt id='1857'> +7.5048751e+01 </wgt>
<wgt id='1858'> +7.4917390e+01 </wgt>
<wgt id='1859'> +7.5301013e+01 </wgt>
<wgt id='1860'> +7.5439520e+01 </wgt>
<wgt id='1861'> +7.5113127e+01 </wgt>
<wgt id='1862'> +7.5190620e+01 </wgt>
<wgt id='1863'> +7.5163977e+01 </wgt>
<wgt id='1864'> +7.4964341e+01 </wgt>
<wgt id='1865'> +7.4848800e+01 </wgt>
<wgt id='1866'> +7.5737335e+01 </wgt>
<wgt id='1867'> +7.4464790e+01 </wgt>
<wgt id='1868'> +7.4716095e+01 </wgt>
<wgt id='1869'> +7.4559829e+01 </wgt>
<wgt id='1870'> +7.5408806e+01 </wgt>
<wgt id='1871'> +7.4879294e+01 </wgt>
<wgt id='1872'> +7.4936598e+01 </wgt>
<wgt id='1873'> +7.5527694e+01 </wgt>
<wgt id='1874'> +7.4219957e+01 </wgt>
<wgt id='1875'> +7.5014102e+01 </wgt>
<wgt id='1876'> +7.5106410e+01 </wgt>
<wgt id='1877'> +7.4381058e+01 </wgt>
<wgt id='1878'> +7.5001729e+01 </wgt>
<wgt id='1879'> +7.5280813e+01 </wgt>
<wgt id='1880'> +7.5028851e+01 </wgt>
<wgt id='1881'> +7.4813838e+01 </wgt>
<wgt id='1882'> +7.4918435e+01 </wgt>
<wgt id='1883'> +7.4972671e+01 </wgt>
<wgt id='1884'> +7.4952567e+01 </wgt>
<wgt id='1885'> +7.4869939e+01 </wgt>
<wgt id='1886'> +7.4756090e+01 </wgt>
<wgt id='1887'> +7.4934657e+01 </wgt>
<wgt id='1888'> +7.4707194e+01 </wgt>
<wgt id='1889'> +7.4784025e+01 </wgt>
<wgt id='1890'> +7.5169906e+01 </wgt>
<wgt id='1891'> +7.5387643e+01 </wgt>
<wgt id='1892'> +7.4982295e+01 </wgt>
<wgt id='1893'> +7.4931706e+01 </wgt>
<wgt id='1894'> +7.5198920e+01 </wgt>
<wgt id='1895'> +7.4668107e+01 </wgt>
<wgt id='1896'> +7.4943874e+01 </wgt>
<wgt id='1897'> +7.4953410e+01 </wgt>
<wgt id='1898'> +7.4991532e+01 </wgt>
<wgt id='1899'> +7.4903041e+01 </wgt>
<wgt id='1900'> +7.4927532e+01 </wgt>
<wgt id='1901'> +7.4576723e+01 </wgt>
<wgt id='1902'> +7.4352994e+01 </wgt>
<wgt id='1903'> +7.4854361e+01 </wgt>
<wgt id='1904'> +7.4872922e+01 </wgt>
<wgt id='1905'> +7.4933151e+01 </wgt>
<wgt id='1906'> +7.4865541e+01 </wgt>
<wgt id='1907'> +7.5029638e+01 </wgt>
<wgt id='1908'> +7.5045724e+01 </wgt>
<wgt id='1909'> +7.4799055e+01 </wgt>
<wgt id='1910'> +7.5035627e+01 </wgt>
<wgt id='1911'> +7.5358369e+01 </wgt>
<wgt id='1912'> +7.4978120e+01 </wgt>
<wgt id='1913'> +7.4899231e+01 </wgt>
<wgt id='1914'> +7.4928970e+01 </wgt>
<wgt id='1915'> +7.5052218e+01 </wgt>
<wgt id='1916'> +7.5057411e+01 </wgt>
<wgt id='1917'> +7.5001166e+01 </wgt>
<wgt id='1918'> +7.4932126e+01 </wgt>
<wgt id='1919'> +7.4911736e+01 </wgt>
<wgt id='1920'> +7.5218309e+01 </wgt>
<wgt id='1921'> +7.4933077e+01 </wgt>
<wgt id='1922'> +7.5048936e+01 </wgt>
<wgt id='1923'> +7.5031280e+01 </wgt>
<wgt id='1924'> +7.5122987e+01 </wgt>
<wgt id='1925'> +7.5008059e+01 </wgt>
<wgt id='1926'> +7.4976497e+01 </wgt>
<wgt id='1927'> +7.5079300e+01 </wgt>
<wgt id='1928'> +7.4992185e+01 </wgt>
<wgt id='1929'> +7.5044723e+01 </wgt>
<wgt id='1930'> +7.4955300e+01 </wgt>
<wgt id='1931'> +7.4958263e+01 </wgt>
<wgt id='1932'> +7.5100196e+01 </wgt>
<wgt id='1933'> +7.4985164e+01 </wgt>
<wgt id='1934'> +7.4940705e+01 </wgt>
<wgt id='1935'> +7.5002794e+01 </wgt>
<wgt id='1936'> +7.5023174e+01 </wgt>
<wgt id='1937'> +7.4992531e+01 </wgt>
<wgt id='1938'> +7.5058503e+01 </wgt>
<wgt id='1939'> +7.5011705e+01 </wgt>
<wgt id='1940'> +7.4986290e+01 </wgt>
<wgt id='1941'> +7.5015438e+01 </wgt>
<wgt id='1942'> +7.4952795e+01 </wgt>
<wgt id='1943'> +7.5019951e+01 </wgt>
<wgt id='1944'> +7.4953733e+01 </wgt>
<wgt id='1945'> +7.5034883e+01 </wgt>
<wgt id='1946'> +7.4989024e+01 </wgt>
<wgt id='1947'> +7.5024802e+01 </wgt>
<wgt id='1948'> +7.4978712e+01 </wgt>
<wgt id='1949'> +7.5025979e+01 </wgt>
<wgt id='1950'> +7.5043550e+01 </wgt>
<wgt id='1951'> +7.4970751e+01 </wgt>
<wgt id='1952'> +7.5004503e+01 </wgt>
<wgt id='1953'> +7.5001995e+01 </wgt>
<wgt id='1954'> +7.4988139e+01 </wgt>
<wgt id='1955'> +7.5009292e+01 </wgt>
<wgt id='1956'> +7.5005503e+01 </wgt>
<wgt id='1957'> +7.5009094e+01 </wgt>
<wgt id='1958'> +7.5006648e+01 </wgt>
<wgt id='1959'> +7.5006758e+01 </wgt>
<wgt id='1960'> +7.5007769e+01 </wgt>
<wgt id='1961'> +7.5006316e+01 </wgt>
<wgt id='1962'> +7.5009711e+01 </wgt>
</rwgt>
</event>
<event npLO=" -1 " npNLO=" 0 ">
 6      0 +1.5146096e+02 3.11215520e+01 7.54677110e-03 1.16853220e-01
        4 -1    0    0  501    0 +0.0000000000e+00 +0.0000000000e+00 +7.7055330000e+01 7.7055330000e+01 0.0000000000e+00 0.0000e+00 9.0000e+00
       -4 -1    0    0    0  501 +0.0000000000e+00 +0.0000000000e+00 -2.8082385000e+01 2.8082385000e+01 0.0000000000e+00 0.0000e+00 9.0000e+00
       23  2    1    2    0    0 +0.0000000000e+00 +3.5527137000e-15 +4.8972945000e+01 1.0513771000e+02 9.3035422000e+01 0.0000e+00 0.0000e+00
       13  1    3    3    0    0 +3.6973975000e+01 +2.1531605000e+01 +3.8826472000e+00 4.2962307000e+01 0.0000000000e+00 0.0000e+00 9.0000e+00
      -13  1    3    3    0    0 -1.8484941000e+01 -1.0096136000e+01 +2.2763208000e+01 3.1012717000e+01 0.0000000000e+00 0.0000e+00 9.0000e+00
       22  1    3    3    0    0 -1.8489034000e+01 -1.1435469000e+01 +2.2327090000e+01 3.1162691000e+01 0.0000000000e+00 0.0000e+00 9.0000e+00
#aMCatNLO 1  0  0  2  1 0.40444408E+02 0.00000000E+00 -9  6  0 0.00000000E+00 0.00000000E+00 0.00000000E+00 0.00000000E+00 0.00000000E+00
<rwgt>
<wgt id='1001'> +1.5146000e+02 </wgt>
<wgt id='1002'> +1.5146000e+02 </wgt>
<wgt id='1003'> +1.3471000e+02 </wgt>
<wgt id='1004'> +1.5272000e+02 </wgt>
<wgt id='1005'> +1.4980000e+02 </wgt>
<wgt id='1006'> +1.4915000e+02 </wgt>
<wgt id='1007'> +1.2848000e+02 </wgt>
<wgt id='1008'> +1.5192000e+02 </wgt>
<wgt id='1009'> +1.5488000e+02 </wgt>
<wgt id='1010'> +1.5050000e+02 </wgt>
<wgt id='1011'> +1.5083000e+02 </wgt>
<wgt id='1012'> +1.4535000e+02 </wgt>
<wgt id='1013'> +1.5028000e+02 </wgt>
<wgt id='1014'> +1.5510000e+02 </wgt>
<wgt id='1015'> +1.5455000e+02 </wgt>
<wgt id='1016'> +1.4622000e+02 </wgt>
<wgt id='1017'> +1.5139000e+02 </wgt>
<wgt id='1018'> +1.5498000e+02 </wgt>
<wgt id='1019'> +1.4765000e+02 </wgt>
<wgt id='1020'> +1.4906000e+02 </wgt>
<wgt id='1021'> +1.5352000e+02 </wgt>
<wgt id='1022'> +1.5351000e+02 </wgt>
<wgt id='1023'> +1.5217000e+02 </wgt>
<wgt id='1024'> +1.5116000e+02 </wgt>
<wgt id='1025'> +1.6591000e+02 </wgt>
<wgt id='1026'> +1.4995000e+02 </wgt>
<wgt id='1027'> +1.5492000e+02 </wgt>
<wgt id='1028'> +1.4682000e+02 </wgt>
<wgt id='1029'> +1.4944000e+02 </wgt>
<wgt id='1030'> +1.5028000e+02 </wgt>
<wgt id='1031'> +1.4885000e+02 </wgt>
<wgt id='1032'> +1.5519000e+02 </wgt>
<wgt id='1033'> +1.5087000e+02 </wgt>
<wgt id='1034'> +1.4568000e+02 </wgt>
<wgt id='1035'> +1.5649000e+02 </wgt>
<wgt id='1036'> +1.5325000e+02 </wgt>
<wgt id='1037'> +1.5665000e+02 </wgt>
<wgt id='1038'> +1.5760000e+02 </wgt>
<wgt id='1039'> +1.5385000e+02 </wgt>
<wgt id='1040'> +1.4981000e+02 </wgt>
<wgt id='1041'> +1.4475000e+02 </wgt>
<wgt id='1042'> +1.5524000e+02 </wgt>
<wgt id='1043'> +1.5000000e+02 </wgt>
<wgt id='1044'> +1.5501000e+02 </wgt>
<wgt id='1045'> +1.5449000e+02 </wgt>
<wgt id='1046'> +1.4997000e+02 </wgt>
<wgt id='1047'> +1.5510000e+02 </wgt>
<wgt id='1048'> +1.5280000e+02 </wgt>
<wgt id='1049'> +1.4805000e+02 </wgt>
<wgt id='1050'> +1.4738000e+02 </wgt>
<wgt id='1051'> +1.5354000e+02 </wgt>
<wgt id='1052'> +1.5248000e+02 </wgt>
<wgt id='1053'> +1.5203000e+02 </wgt>
<wgt id='1054'> +1.5140000e+02 </wgt>
<wgt id='1055'> +1.5438000e+02 </wgt>
<wgt id='1056'> +1.5100000e+02 </wgt>
<wgt id='1057'> +1.5194000e+02 </wgt>
<wgt id='1058'> +1.4610000e+02 </wgt>
<wgt id='1059'> +1.5965000e+02 </wgt>
<wgt id='1060'> +1.5047000e+02 </wgt>
<wgt id='1061'> +1.5375000e+02 </wgt>
<wgt id='1062'> +1.5068000e+02 </wgt>
<wgt id='1063'> +1.5369000e+02 </wgt>
<wgt id='1064'> +1.5190000e+02 </wgt>
<wgt id='1065'> +1.5527000e+02 </wgt>
<wgt id='1066'> +1.4912000e+02 </wgt>
<wgt id='1067'> +1.5353000e+02 </wgt>
<wgt id='1068'> +1.5275000e+02 </wgt>
<wgt id='1069'> +1.5871000e+02 </wgt>
<wgt id='1070'> +1.4856000e+02 </wgt>
<wgt id='1071'> +1.4712000e+02 </wgt>
<wgt id='1072'> +1.5299000e+02 </wgt>
<wgt id='1073'> +1.5667000e+02 </wgt>
<wgt id='1074'> +1.4960000e+02 </wgt>
<wgt id='1075'> +1.3661000e+02 </wgt>
<wgt id='1076'> +1.5273000e+02 </wgt>
<wgt id='1077'> +1.4950000e+02 </wgt>
<wgt id='1078'> +1.4702000e+02 </wgt>
<wgt id='1079'> +1.5392000e+02 </wgt>
<wgt id='1080'> +1.5912000e+02 </wgt>
<wgt id='1081'> +1.5043000e+02 </wgt>
<wgt id='1082'> +1.5341000e+02 </wgt>
<wgt id='1083'> +1.5269000e+02 </wgt>
<wgt id='1084'> +1.4981000e+02 </wgt>
<wgt id='1085'> +1.5140000e+02 </wgt>
<wgt id='1086'> +1.5242000e+02 </wgt>
<wgt id='1087'> +1.4588000e+02 </wgt>
<wgt id='1088'> +1.5114000e+02 </wgt>
<wgt id='1089'> +1.5083000e+02 </wgt>
<wgt id='1090'> +1.5188000e+02 </wgt>
<wgt id='1091'> +1.5478000e+02 </wgt>
<wgt id='1092'> +1.5110000e+02 </wgt>
<wgt id='1093'> +1.4545000e+02 </wgt>
<wgt id='1094'> +1.5676000e+02 </wgt>
<wgt id='1095'> +1.4954000e+02 </wgt>
<wgt id='1096'> +1.5647000e+02 </wgt>
<wgt id='1097'> +1.4911000e+02 </wgt>
<wgt id='1098'> +1.5412000e+02 </wgt>
<wgt id='1099'> +1.5236000e+02 </wgt>
<wgt id='1100'> +1.5978000e+02 </wgt>
<wgt id='1101'> +1.5653000e+02 </wgt>
<wgt id='1102'> +1.5131000e+02 </wgt>
<wgt id='1103'> +1.4930000e+02 </wgt>
<wgt id='1104'> +1.5193000e+02 </wgt>
<wgt id='1105'> +1.5146096e+02 </wgt>
<wgt id='1106'> +7.9708425e+01 </wgt>
<wgt id='1107'> +7.0806543e+01 </wgt>
<wgt id='1108'> +8.8342225e+01 </wgt>
<wgt id='1109'> +9.3145709e+01 </wgt>
<wgt id='1110'> +8.2396430e+01 </wgt>
<wgt id='1111'> +6.2066465e+01 </wgt>
<wgt id='1112'> +6.5214547e+01 </wgt>
<wgt id='1113'> +5.8169734e+01 </wgt>
<wgt id='1114'> +6.7739669e+01 </wgt>
<wgt id='1115'> +6.1047970e+01 </wgt>
<wgt id='1116'> +6.9102973e+01 </wgt>
<wgt id='1117'> +7.2001895e+01 </wgt>
<wgt id='1118'> +6.8224976e+01 </wgt>
<wgt id='1119'> +6.8885191e+01 </wgt>
<wgt id='1120'> +6.1856955e+01 </wgt>
<wgt id='1121'> +6.8993461e+01 </wgt>
<wgt id='1122'> +7.1059646e+01 </wgt>
<wgt id='1123'> +7.3935264e+01 </wgt>
<wgt id='1124'> +7.0766184e+01 </wgt>
<wgt id='1125'> +6.6645409e+01 </wgt>
<wgt id='1126'> +6.7309012e+01 </wgt>
<wgt id='1127'> +6.8286989e+01 </wgt>
<wgt id='1128'> +6.5488829e+01 </wgt>
<wgt id='1129'> +7.0601538e+01 </wgt>
<wgt id='1130'> +6.8366764e+01 </wgt>
<wgt id='1131'> +7.1089753e+01 </wgt>
<wgt id='1132'> +6.7090660e+01 </wgt>
<wgt id='1133'> +6.7176794e+01 </wgt>
<wgt id='1134'> +7.2819693e+01 </wgt>
<wgt id='1135'> +7.0478603e+01 </wgt>
<wgt id='1136'> +6.5919907e+01 </wgt>
<wgt id='1137'> +6.6724374e+01 </wgt>
<wgt id='1138'> +6.7061991e+01 </wgt>
<wgt id='1139'> +7.0918304e+01 </wgt>
<wgt id='1140'> +6.9100256e+01 </wgt>
<wgt id='1141'> +6.7828700e+01 </wgt>
<wgt id='1142'> +6.6221904e+01 </wgt>
<wgt id='1143'> +6.7903315e+01 </wgt>
<wgt id='1144'> +6.9878566e+01 </wgt>
<wgt id='1145'> +6.4508584e+01 </wgt>
<wgt id='1146'> +6.9821065e+01 </wgt>
<wgt id='1147'> +6.5072628e+01 </wgt>
<wgt id='1148'> +6.6205620e+01 </wgt>
<wgt id='1149'> +6.7315275e+01 </wgt>
<wgt id='1150'> +6.6677932e+01 </wgt>
<wgt id='1151'> +6.8601742e+01 </wgt>
<wgt id='1152'> +6.9198238e+01 </wgt>
<wgt id='1153'> +6.6494584e+01 </wgt>
<wgt id='1154'> +6.6887467e+01 </wgt>
<wgt id='1155'> +6.7861963e+01 </wgt>
<wgt id='1156'> +6.2779155e+01 </wgt>
<wgt id='1157'> +6.4335585e+01 </wgt>
<wgt id='1158'> +6.3397576e+01 </wgt>
<wgt id='1159'> +6.5519989e+01 </wgt>
<wgt id='1160'> +6.4040226e+01 </wgt>
<wgt id='1161'> +6.3558572e+01 </wgt>
<wgt id='1162'> +6.7391488e+01 </wgt>
<wgt id='1163'> +6.6318163e+01 </wgt>
<wgt id='1164'> +6.6956882e+01 </wgt>
<wgt id='1165'> +6.5908917e+01 </wgt>
<wgt id='1166'> +7.2132290e+01 </wgt>
<wgt id='1167'> +6.8150533e+01 </wgt>
<wgt id='1168'> +6.4434029e+01 </wgt>
<wgt id='1169'> +6.4360746e+01 </wgt>
<wgt id='1170'> +6.6331752e+01 </wgt>
<wgt id='1171'> +6.4255460e+01 </wgt>
<wgt id='1172'> +6.9479718e+01 </wgt>
<wgt id='1173'> +7.2184560e+01 </wgt>
<wgt id='1174'> +6.6471858e+01 </wgt>
<wgt id='1175'> +6.6710643e+01 </wgt>
<wgt id='1176'> +6.9324298e+01 </wgt>
<wgt id='1177'> +6.5677142e+01 </wgt>
<wgt id='1178'> +6.8591250e+01 </wgt>
<wgt id='1179'> +6.6780613e+01 </wgt>
<wgt id='1180'> +6.1730372e+01 </wgt>
<wgt id='1181'> +6.1248881e+01 </wgt>
<wgt id='1182'> +7.0573405e+01 </wgt>
<wgt id='1183'> +6.7289338e+01 </wgt>
<wgt id='1184'> +6.8058490e+01 </wgt>
<wgt id='1185'> +7.3163066e+01 </wgt>
<wgt id='1186'> +6.5887441e+01 </wgt>
<wgt id='1187'> +7.4917353e+01 </wgt>
<wgt id='1188'> +7.4605077e+01 </wgt>
<wgt id='1189'> +6.8494626e+01 </wgt>
<wgt id='1190'> +6.2659583e+01 </wgt>
<wgt id='1191'> +7.4496340e+01 </wgt>
<wgt id='1192'> +6.8103858e+01 </wgt>
<wgt id='1193'> +6.9235218e+01 </wgt>
<wgt id='1194'> +6.4476080e+01 </wgt>
<wgt id='1195'> +6.5448160e+01 </wgt>
<wgt id='1196'> +6.8366764e+01 </wgt>
<wgt id='1197'> +6.4534587e+01 </wgt>
<wgt id='1198'> +7.0428031e+01 </wgt>
<wgt id='1199'> +6.9291527e+01 </wgt>
<wgt id='1200'> +6.0671096e+01 </wgt>
<wgt id='1201'> +6.7409358e+01 </wgt>
<wgt id='1202'> +6.6612456e+01 </wgt>
<wgt id='1203'> +7.7366007e+01 </wgt>
<wgt id='1204'> +6.6142824e+01 </wgt>
<wgt id='1205'> +6.5754973e+01 </wgt>
<wgt id='1206'> +7.1765711e+01 </wgt>
<wgt id='1207'> +6.9807909e+01 </wgt>
<wgt id='1208'> +7.0569530e+01 </wgt>
<wgt id='1209'> +6.7198706e+01 </wgt>
<wgt id='1210'> +6.6817909e+01 </wgt>
<wgt id='1211'> +6.2842591e+01 </wgt>
<wgt id='1212'> +7.1688202e+01 </wgt>
<wgt id='1213'> +7.2332117e+01 </wgt>
<wgt id='1214'> +7.0792315e+01 </wgt>
<wgt id='1215'> +7.5316279e+01 </wgt>
<wgt id='1216'> +6.3623785e+01 </wgt>
<wgt id='1217'> +6.3938984e+01 </wgt>
<wgt id='1218'> +6.3162590e+01 </wgt>
<wgt id='1219'> +6.4106294e+01 </wgt>
<wgt id='1220'> +6.3545769e+01 </wgt>
<wgt id='1221'> +6.4089588e+01 </wgt>
<wgt id='1222'> +6.3810882e+01 </wgt>
<wgt id='1223'> +6.3519197e+01 </wgt>
<wgt id='1224'> +6.3209111e+01 </wgt>
<wgt id='1225'> +6.2932896e+01 </wgt>
<wgt id='1226'> +6.3617742e+01 </wgt>
<wgt id='1227'> +6.3992887e+01 </wgt>
<wgt id='1228'> +6.4385019e+01 </wgt>
<wgt id='1229'> +6.2571241e+01 </wgt>
<wgt id='1230'> +6.3835425e+01 </wgt>
<wgt id='1231'> +6.4280125e+01 </wgt>
<wgt id='1232'> +6.3498055e+01 </wgt>
<wgt id='1233'> +6.4289528e+01 </wgt>
<wgt id='1234'> +6.3529870e+01 </wgt>
<wgt id='1235'> +6.3271557e+01 </wgt>
<wgt id='1236'> +6.4020527e+01 </wgt>
<wgt id='1237'> +6.2864724e+01 </wgt>
<wgt id='1238'> +6.3603618e+01 </wgt>
<wgt id='1239'> +6.3807042e+01 </wgt>
<wgt id='1240'> +6.3038333e+01 </wgt>
<wgt id='1241'> +6.4231176e+01 </wgt>
<wgt id='1242'> +6.3649173e+01 </wgt>
<wgt id='1243'> +6.3313546e+01 </wgt>
<wgt id='1244'> +6.3865703e+01 </wgt>
<wgt id='1245'> +6.2620941e+01 </wgt>
<wgt id='1246'> +6.3633414e+01 </wgt>
<wgt id='1247'> +6.3635911e+01 </wgt>
<wgt id='1248'> +6.3961279e+01 </wgt>
<wgt id='1249'> +6.3419746e+01 </wgt>
<wgt id='1250'> +6.3185171e+01 </wgt>
<wgt id='1251'> +6.3492933e+01 </wgt>
<wgt id='1252'> +6.3643879e+01 </wgt>
<wgt id='1253'> +6.3789568e+01 </wgt>
<wgt id='1254'> +6.3612159e+01 </wgt>
<wgt id='1255'> +6.3936299e+01 </wgt>
<wgt id='1256'> +6.3578811e+01 </wgt>
<wgt id='1257'> +6.4263982e+01 </wgt>
<wgt id='1258'> +6.3881487e+01 </wgt>
<wgt id='1259'> +6.3716063e+01 </wgt>
<wgt id='1260'> +6.3810086e+01 </wgt>
<wgt id='1261'> +6.3315530e+01 </wgt>
<wgt id='1262'> +6.3471081e+01 </wgt>
<wgt id='1263'> +6.3894892e+01 </wgt>
<wgt id='1264'> +6.3815901e+01 </wgt>
<wgt id='1265'> +6.3308432e+01 </wgt>
<wgt id='1266'> +6.3527089e+01 </wgt>
<wgt id='1267'> +6.3406062e+01 </wgt>
<wgt id='1268'> +6.4064268e+01 </wgt>
<wgt id='1269'> +6.3725136e+01 </wgt>
<wgt id='1270'> +6.3911907e+01 </wgt>
<wgt id='1271'> +6.3712773e+01 </wgt>
<wgt id='1272'> +6.3409415e+01 </wgt>
<wgt id='1273'> +6.3720324e+01 </wgt>
<wgt id='1274'> +6.3642124e+01 </wgt>
<wgt id='1275'> +6.3669396e+01 </wgt>
<wgt id='1276'> +6.3530276e+01 </wgt>
<wgt id='1277'> +6.3398714e+01 </wgt>
<wgt id='1278'> +6.3409572e+01 </wgt>
<wgt id='1279'> +6.3515703e+01 </wgt>
<wgt id='1280'> +6.3589924e+01 </wgt>
<wgt id='1281'> +6.3686848e+01 </wgt>
<wgt id='1282'> +6.3303374e+01 </wgt>
<wgt id='1283'> +6.3835372e+01 </wgt>
<wgt id='1284'> +6.3780654e+01 </wgt>
<wgt id='1285'> +6.3678602e+01 </wgt>
<wgt id='1286'> +6.3716275e+01 </wgt>
<wgt id='1287'> +6.3506609e+01 </wgt>
<wgt id='1288'> +6.3767800e+01 </wgt>
<wgt id='1289'> +6.3529106e+01 </wgt>
<wgt id='1290'> +6.3383404e+01 </wgt>
<wgt id='1291'> +6.3598813e+01 </wgt>
<wgt id='1292'> +6.3457445e+01 </wgt>
<wgt id='1293'> +6.3496930e+01 </wgt>
<wgt id='1294'> +6.3575933e+01 </wgt>
<wgt id='1295'> +6.3739428e+01 </wgt>
<wgt id='1296'> +6.3622992e+01 </wgt>
<wgt id='1297'> +6.3714370e+01 </wgt>
<wgt id='1298'> +6.3787390e+01 </wgt>
<wgt id='1299'> +6.3721256e+01 </wgt>
<wgt id='1300'> +6.3522842e+01 </wgt>
<wgt id='1301'> +6.3449103e+01 </wgt>
<wgt id='1302'> +6.3639489e+01 </wgt>
<wgt id='1303'> +6.3723107e+01 </wgt>
<wgt id='1304'> +6.3640824e+01 </wgt>
<wgt id='1305'> +6.3580507e+01 </wgt>
<wgt id='1306'> +6.3626390e+01 </wgt>
<wgt id='1307'> +6.3706143e+01 </wgt>
<wgt id='1308'> +6.3652344e+01 </wgt>
<wgt id='1309'> +6.3503190e+01 </wgt>
<wgt id='1310'> +6.3688874e+01 </wgt>
<wgt id='1311'> +6.3683663e+01 </wgt>
<wgt id='1312'> +6.3544691e+01 </wgt>
<wgt id='1313'> +6.3577081e+01 </wgt>
<wgt id='1314'> +6.3690528e+01 </wgt>
<wgt id='1315'> +6.3593559e+01 </wgt>
<wgt id='1316'> +6.3505400e+01 </wgt>
<wgt id='1317'> +6.1915563e+01 </wgt>
<wgt id='1318'> +6.5584465e+01 </wgt>
<wgt id='1319'> +4.8616130e+01 </wgt>
<wgt id='1320'> +7.4035014e+01 </wgt>
<wgt id='1321'> +7.4052637e+01 </wgt>
<wgt id='1322'> +7.4302093e+01 </wgt>
<wgt id='1323'> +7.6682917e+01 </wgt>
<wgt id='1324'> +7.3246115e+01 </wgt>
<wgt id='1325'> +7.4374629e+01 </wgt>
<wgt id='1326'> +7.3635139e+01 </wgt>
<wgt id='1327'> +7.5157225e+01 </wgt>
<wgt id='1328'> +7.3708479e+01 </wgt>
<wgt id='1329'> +7.1758222e+01 </wgt>
<wgt id='1330'> +7.5848219e+01 </wgt>
<wgt id='1331'> +7.5525551e+01 </wgt>
<wgt id='1332'> +7.3188992e+01 </wgt>
<wgt id='1333'> +6.9900333e+01 </wgt>
<wgt id='1334'> +7.6530530e+01 </wgt>
<wgt id='1335'> +7.4953916e+01 </wgt>
<wgt id='1336'> +7.3415486e+01 </wgt>
<wgt id='1337'> +7.3058161e+01 </wgt>
<wgt id='1338'> +7.5195757e+01 </wgt>
<wgt id='1339'> +7.5247125e+01 </wgt>
<wgt id='1340'> +7.2659958e+01 </wgt>
<wgt id='1341'> +7.4277722e+01 </wgt>
<wgt id='1342'> +7.3512608e+01 </wgt>
<wgt id='1343'> +7.3436591e+01 </wgt>
<wgt id='1344'> +7.4571896e+01 </wgt>
<wgt id='1345'> +7.2122539e+01 </wgt>
<wgt id='1346'> +7.5824157e+01 </wgt>
<wgt id='1347'> +7.3638837e+01 </wgt>
<wgt id='1348'> +7.4567602e+01 </wgt>
<wgt id='1349'> +7.3211099e+01 </wgt>
<wgt id='1350'> +7.4317129e+01 </wgt>
<wgt id='1351'> +7.4118860e+01 </wgt>
<wgt id='1352'> +7.3925017e+01 </wgt>
<wgt id='1353'> +7.4104327e+01 </wgt>
<wgt id='1354'> +7.3860308e+01 </wgt>
<wgt id='1355'> +7.5925339e+01 </wgt>
<wgt id='1356'> +7.2196241e+01 </wgt>
<wgt id='1357'> +7.4931547e+01 </wgt>
<wgt id='1358'> +7.2591688e+01 </wgt>
<wgt id='1359'> +7.4009596e+01 </wgt>
<wgt id='1360'> +7.3940922e+01 </wgt>
<wgt id='1361'> +7.5009939e+01 </wgt>
<wgt id='1362'> +7.3053903e+01 </wgt>
<wgt id='1363'> +7.5043137e+01 </wgt>
<wgt id='1364'> +7.2790341e+01 </wgt>
<wgt id='1365'> +7.2965904e+01 </wgt>
<wgt id='1366'> +7.3497940e+01 </wgt>
<wgt id='1367'> +7.2813950e+01 </wgt>
<wgt id='1368'> +7.5586481e+01 </wgt>
<wgt id='1369'> +7.4894370e+01 </wgt>
<wgt id='1370'> +7.2198829e+01 </wgt>
<wgt id='1371'> +7.3914652e+01 </wgt>
<wgt id='1372'> +7.3877832e+01 </wgt>
<wgt id='1373'> +7.1840897e+01 </wgt>
<wgt id='1374'> +7.4514478e+01 </wgt>
<wgt id='1375'> +7.3303590e+01 </wgt>
<wgt id='1376'> +7.4756806e+01 </wgt>
<wgt id='1377'> +7.2660227e+01 </wgt>
<wgt id='1378'> +7.5085872e+01 </wgt>
<wgt id='1379'> +7.3247776e+01 </wgt>
<wgt id='1380'> +7.2542553e+01 </wgt>
<wgt id='1381'> +7.3435995e+01 </wgt>
<wgt id='1382'> +4.5762995e+01 </wgt>
<wgt id='1383'> +7.2872903e+01 </wgt>
<wgt id='1384'> +7.1450361e+01 </wgt>
<wgt id='1385'> +5.5083670e+01 </wgt>
<wgt id='1386'> +5.5193056e+01 </wgt>
<wgt id='1387'> +5.4959093e+01 </wgt>
<wgt id='1388'> +5.4578207e+01 </wgt>
<wgt id='1389'> +5.5952683e+01 </wgt>
<wgt id='1390'> +5.5021619e+01 </wgt>
<wgt id='1391'> +5.5156301e+01 </wgt>
<wgt id='1392'> +5.5577565e+01 </wgt>
<wgt id='1393'> +5.4740122e+01 </wgt>
<wgt id='1394'> +5.4619240e+01 </wgt>
<wgt id='1395'> +5.5661345e+01 </wgt>
<wgt id='1396'> +5.4372470e+01 </wgt>
<wgt id='1397'> +5.5454069e+01 </wgt>
<wgt id='1398'> +5.5063428e+01 </wgt>
<wgt id='1399'> +5.5087647e+01 </wgt>
<wgt id='1400'> +5.5056071e+01 </wgt>
<wgt id='1401'> +5.5093326e+01 </wgt>
<wgt id='1402'> +5.4907680e+01 </wgt>
<wgt id='1403'> +5.5164836e+01 </wgt>
<wgt id='1404'> +5.5712719e+01 </wgt>
<wgt id='1405'> +5.4779075e+01 </wgt>
<wgt id='1406'> +5.5058835e+01 </wgt>
<wgt id='1407'> +5.5124076e+01 </wgt>
<wgt id='1408'> +5.5063298e+01 </wgt>
<wgt id='1409'> +5.5127465e+01 </wgt>
<wgt id='1410'> +5.5087572e+01 </wgt>
<wgt id='1411'> +5.5029395e+01 </wgt>
<wgt id='1412'> +5.5815923e+01 </wgt>
<wgt id='1413'> +5.4088573e+01 </wgt>
<wgt id='1414'> +5.5431432e+01 </wgt>
<wgt id='1415'> +5.4860844e+01 </wgt>
<wgt id='1416'> +5.5131002e+01 </wgt>
<wgt id='1417'> +5.5054467e+01 </wgt>
<wgt id='1418'> +5.5232165e+01 </wgt>
<wgt id='1419'> +5.4753995e+01 </wgt>
<wgt id='1420'> +5.4576686e+01 </wgt>
<wgt id='1421'> +5.5181910e+01 </wgt>
<wgt id='1422'> +5.5228017e+01 </wgt>
<wgt id='1423'> +5.4915284e+01 </wgt>
<wgt id='1424'> +5.5012203e+01 </wgt>
<wgt id='1425'> +5.4972216e+01 </wgt>
<wgt id='1426'> +5.5172229e+01 </wgt>
<wgt id='1427'> +5.5000086e+01 </wgt>
<wgt id='1428'> +5.5393846e+01 </wgt>
<wgt id='1429'> +5.4919384e+01 </wgt>
<wgt id='1430'> +5.5102377e+01 </wgt>
<wgt id='1431'> +5.5065744e+01 </wgt>
<wgt id='1432'> +5.5069379e+01 </wgt>
<wgt id='1433'> +5.5097147e+01 </wgt>
<wgt id='1434'> +5.5018140e+01 </wgt>
<wgt id='1435'> +5.5162959e+01 </wgt>
<wgt id='1436'> +0.0000000e+00 </wgt>
<wgt id='1437'> +0.0000000e+00 </wgt>
<wgt id='1438'> +0.0000000e+00 </wgt>
<wgt id='1439'> +0.0000000e+00 </wgt>
<wgt id='1440'> +0.0000000e+00 </wgt>
<wgt id='1441'> +0.0000000e+00 </wgt>
<wgt id='1442'> +0.0000000e+00 </wgt>
<wgt id='1443'> +0.0000000e+00 </wgt>
<wgt id='1444'> +0.0000000e+00 </wgt>
<wgt id='1445'> +0.0000000e+00 </wgt>
<wgt id='1446'> +0.0000000e+00 </wgt>
<wgt id='1447'> +0.0000000e+00 </wgt>
<wgt id='1448'> +0.0000000e+00 </wgt>
<wgt id='1449'> +0.0000000e+00 </wgt>
<wgt id='1450'> +0.0000000e+00 </wgt>
<wgt id='1451'> +0.0000000e+00 </wgt>
<wgt id='1452'> +0.0000000e+00 </wgt>
<wgt id='1453'> +0.0000000e+00 </wgt>
<wgt id='1454'> +0.0000000e+00 </wgt>
<wgt id='1455'> +0.0000000e+00 </wgt>
<wgt id='1456'> +0.0000000e+00 </wgt>
<wgt id='1457'> +0.0000000e+00 </wgt>
<wgt id='1458'> +0.0000000e+00 </wgt>
<wgt id='1459'> +0.0000000e+00 </wgt>
<wgt id='1460'> +0.0000000e+00 </wgt>
<wgt id='1461'> +0.0000000e+00 </wgt>
<wgt id='1462'> +0.0000000e+00 </wgt>
<wgt id='1463'> +0.0000000e+00 </wgt>
<wgt id='1464'> +0.0000000e+00 </wgt>
<wgt id='1465'> +7.3752952e+01 </wgt>
<wgt id='1466'> +7.4231466e+01 </wgt>
<wgt id='1467'> +7.3720541e+01 </wgt>
<wgt id='1468'> +7.4949293e+01 </wgt>
<wgt id='1469'> +7.4618506e+01 </wgt>
<wgt id='1470'> +7.3915144e+01 </wgt>
<wgt id='1471'> +7.4295952e+01 </wgt>
<wgt id='1472'> +7.3905586e+01 </wgt>
<wgt id='1473'> +7.4919803e+01 </wgt>
<wgt id='1474'> +7.5040742e+01 </wgt>
<wgt id='1475'> +7.3826908e+01 </wgt>
<wgt id='1476'> +7.6006334e+01 </wgt>
<wgt id='1477'> +7.4125995e+01 </wgt>
<wgt id='1478'> +7.2942013e+01 </wgt>
<wgt id='1479'> +7.4840438e+01 </wgt>
<wgt id='1480'> +7.3265711e+01 </wgt>
<wgt id='1481'> +7.4344121e+01 </wgt>
<wgt id='1482'> +7.3986346e+01 </wgt>
<wgt id='1483'> +7.3832790e+01 </wgt>
<wgt id='1484'> +7.4410749e+01 </wgt>
<wgt id='1485'> +7.3842714e+01 </wgt>
<wgt id='1486'> +7.3832796e+01 </wgt>
<wgt id='1487'> +7.4413768e+01 </wgt>
<wgt id='1488'> +7.4485679e+01 </wgt>
<wgt id='1489'> +7.3988407e+01 </wgt>
<wgt id='1490'> +7.4378322e+01 </wgt>
<wgt id='1491'> +7.4899597e+01 </wgt>
<wgt id='1492'> +7.4382050e+01 </wgt>
<wgt id='1493'> +7.4068912e+01 </wgt>
<wgt id='1494'> +7.4392543e+01 </wgt>
<wgt id='1495'> +7.4280323e+01 </wgt>
<wgt id='1496'> +7.4301875e+01 </wgt>
<wgt id='1497'> +7.4220930e+01 </wgt>
<wgt id='1498'> +7.4249318e+01 </wgt>
<wgt id='1499'> +7.4322261e+01 </wgt>
<wgt id='1500'> +7.4424517e+01 </wgt>
<wgt id='1501'> +7.4187189e+01 </wgt>
<wgt id='1502'> +7.4212872e+01 </wgt>
<wgt id='1503'> +7.4243996e+01 </wgt>
<wgt id='1504'> +7.4150787e+01 </wgt>
<wgt id='1505'> +7.4283708e+01 </wgt>
<wgt id='1506'> +7.4331383e+01 </wgt>
<wgt id='1507'> +7.4204162e+01 </wgt>
<wgt id='1508'> +7.4228036e+01 </wgt>
<wgt id='1509'> +7.4193239e+01 </wgt>
<wgt id='1510'> +7.4310148e+01 </wgt>
<wgt id='1511'> +7.4225789e+01 </wgt>
<wgt id='1512'> +7.4148256e+01 </wgt>
<wgt id='1513'> +7.4347995e+01 </wgt>
<wgt id='1514'> +7.4236143e+01 </wgt>
<wgt id='1515'> +7.4248259e+01 </wgt>
<wgt id='1516'> +7.4173493e+01 </wgt>
<wgt id='1517'> +7.4192487e+01 </wgt>
<wgt id='1518'> +7.4184902e+01 </wgt>
<wgt id='1519'> +7.4190181e+01 </wgt>
<wgt id='1520'> +7.4204203e+01 </wgt>
<wgt id='1521'> +7.4211137e+01 </wgt>
<wgt id='1522'> +7.4256196e+01 </wgt>
<wgt id='1523'> +7.4235695e+01 </wgt>
<wgt id='1524'> +7.4202667e+01 </wgt>
<wgt id='1525'> +7.4255854e+01 </wgt>
<wgt id='1526'> +7.4254536e+01 </wgt>
<wgt id='1527'> +7.4255987e+01 </wgt>
<wgt id='1528'> +7.4243952e+01 </wgt>
<wgt id='1529'> +7.4218809e+01 </wgt>
<wgt id='1530'> +7.4218401e+01 </wgt>
<wgt id='1531'> +7.4221384e+01 </wgt>
<wgt id='1532'> +7.4360766e+01 </wgt>
<wgt id='1533'> +7.4295262e+01 </wgt>
<wgt id='1534'> +7.4240881e+01 </wgt>
<wgt id='1535'> +7.4231878e+01 </wgt>
<wgt id='1536'> +7.4156545e+01 </wgt>
<wgt id='1537'> +7.4270484e+01 </wgt>
<wgt id='1538'> +7.4234883e+01 </wgt>
<wgt id='1539'> +7.4181036e+01 </wgt>
<wgt id='1540'> +7.4153565e+01 </wgt>
<wgt id='1541'> +7.4250189e+01 </wgt>
<wgt id='1542'> +7.4282587e+01 </wgt>
<wgt id='1543'> +7.4127876e+01 </wgt>
<wgt id='1544'> +7.4241772e+01 </wgt>
<wgt id='1545'> +7.4251008e+01 </wgt>
<wgt id='1546'> +7.4211183e+01 </wgt>
<wgt id='1547'> +7.4187521e+01 </wgt>
<wgt id='1548'> +7.4308641e+01 </wgt>
<wgt id='1549'> +7.4218323e+01 </wgt>
<wgt id='1550'> +7.4281784e+01 </wgt>
<wgt id='1551'> +7.4208657e+01 </wgt>
<wgt id='1552'> +7.4330646e+01 </wgt>
<wgt id='1553'> +7.4290364e+01 </wgt>
<wgt id='1554'> +7.4268804e+01 </wgt>
<wgt id='1555'> +7.4248570e+01 </wgt>
<wgt id='1556'> +7.4232545e+01 </wgt>
<wgt id='1557'> +7.4152811e+01 </wgt>
<wgt id='1558'> +7.4222543e+01 </wgt>
<wgt id='1559'> +7.4239421e+01 </wgt>
<wgt id='1560'> +7.4171021e+01 </wgt>
<wgt id='1561'> +7.4183944e+01 </wgt>
<wgt id='1562'> +7.4203451e+01 </wgt>
<wgt id='1563'> +7.4271022e+01 </wgt>
<wgt id='1564'> +7.4225927e+01 </wgt>
<wgt id='1565'> +7.4253909e+01 </wgt>
<wgt id='1566'> +7.4241337e+01 </wgt>
<wgt id='1567'> +7.3203798e+01 </wgt>
<wgt id='1568'> +7.4937235e+01 </wgt>
<wgt id='1569'> +7.3343719e+01 </wgt>
<wgt id='1570'> +7.3032461e+01 </wgt>
<wgt id='1571'> +7.3810466e+01 </wgt>
<wgt id='1572'> +7.2434329e+01 </wgt>
<wgt id='1573'> +7.3018544e+01 </wgt>
<wgt id='1574'> +7.3664931e+01 </wgt>
<wgt id='1575'> +7.3458221e+01 </wgt>
<wgt id='1576'> +7.4088179e+01 </wgt>
<wgt id='1577'> +7.3725883e+01 </wgt>
<wgt id='1578'> +7.3239196e+01 </wgt>
<wgt id='1579'> +7.3092690e+01 </wgt>
<wgt id='1580'> +7.4873787e+01 </wgt>
<wgt id='1581'> +7.1990806e+01 </wgt>
<wgt id='1582'> +7.2121090e+01 </wgt>
<wgt id='1583'> +7.2195108e+01 </wgt>
<wgt id='1584'> +7.2765481e+01 </wgt>
<wgt id='1585'> +7.4078296e+01 </wgt>
<wgt id='1586'> +7.3178481e+01 </wgt>
<wgt id='1587'> +7.3248914e+01 </wgt>
<wgt id='1588'> +7.3512040e+01 </wgt>
<wgt id='1589'> +7.3929191e+01 </wgt>
<wgt id='1590'> +7.3168375e+01 </wgt>
<wgt id='1591'> +7.3365534e+01 </wgt>
<wgt id='1592'> +7.3314299e+01 </wgt>
<wgt id='1593'> +7.3090808e+01 </wgt>
<wgt id='1594'> +7.3176202e+01 </wgt>
<wgt id='1595'> +7.3112630e+01 </wgt>
<wgt id='1596'> +7.3565971e+01 </wgt>
<wgt id='1597'> +7.3506067e+01 </wgt>
<wgt id='1598'> +7.3264215e+01 </wgt>
<wgt id='1599'> +7.3259987e+01 </wgt>
<wgt id='1600'> +7.3621592e+01 </wgt>
<wgt id='1601'> +7.3276373e+01 </wgt>
<wgt id='1602'> +7.3324742e+01 </wgt>
<wgt id='1603'> +7.3308880e+01 </wgt>
<wgt id='1604'> +7.3354686e+01 </wgt>
<wgt id='1605'> +7.3363307e+01 </wgt>
<wgt id='1606'> +7.3402737e+01 </wgt>
<wgt id='1607'> +7.3312423e+01 </wgt>
<wgt id='1608'> +7.3235052e+01 </wgt>
<wgt id='1609'> +7.3285772e+01 </wgt>
<wgt id='1610'> +7.3259507e+01 </wgt>
<wgt id='1611'> +7.3289466e+01 </wgt>
<wgt id='1612'> +7.3446828e+01 </wgt>
<wgt id='1613'> +7.3328217e+01 </wgt>
<wgt id='1614'> +7.3304504e+01 </wgt>
<wgt id='1615'> +7.3346621e+01 </wgt>
<wgt id='1616'> +7.3270125e+01 </wgt>
<wgt id='1617'> +7.3414298e+01 </wgt>
<wgt id='1618'> +7.3288382e+01 </wgt>
<wgt id='1619'> +7.3384524e+01 </wgt>
<wgt id='1620'> +7.3337977e+01 </wgt>
<wgt id='1621'> +7.3346292e+01 </wgt>
<wgt id='1622'> +7.3359067e+01 </wgt>
<wgt id='1623'> +7.3355219e+01 </wgt>
<wgt id='1624'> +7.3367469e+01 </wgt>
<wgt id='1625'> +7.3302811e+01 </wgt>
<wgt id='1626'> +7.3346517e+01 </wgt>
<wgt id='1627'> +7.3389342e+01 </wgt>
<wgt id='1628'> +7.3367314e+01 </wgt>
<wgt id='1629'> +7.3371630e+01 </wgt>
<wgt id='1630'> +7.3366398e+01 </wgt>
<wgt id='1631'> +7.3329624e+01 </wgt>
<wgt id='1632'> +7.3323009e+01 </wgt>
<wgt id='1633'> +7.3365625e+01 </wgt>
<wgt id='1634'> +7.3327724e+01 </wgt>
<wgt id='1635'> +7.3335408e+01 </wgt>
<wgt id='1636'> +7.3318272e+01 </wgt>
<wgt id='1637'> +7.3368203e+01 </wgt>
<wgt id='1638'> +7.3324560e+01 </wgt>
<wgt id='1639'> +7.3321873e+01 </wgt>
<wgt id='1640'> +7.3399282e+01 </wgt>
<wgt id='1641'> +7.3348527e+01 </wgt>
<wgt id='1642'> +7.3305946e+01 </wgt>
<wgt id='1643'> +7.3349701e+01 </wgt>
<wgt id='1644'> +7.3350575e+01 </wgt>
<wgt id='1645'> +7.3398973e+01 </wgt>
<wgt id='1646'> +7.3358234e+01 </wgt>
<wgt id='1647'> +7.3384473e+01 </wgt>
<wgt id='1648'> +7.3336495e+01 </wgt>
<wgt id='1649'> +7.3328049e+01 </wgt>
<wgt id='1650'> +7.3391246e+01 </wgt>
<wgt id='1651'> +7.3372720e+01 </wgt>
<wgt id='1652'> +7.3326919e+01 </wgt>
<wgt id='1653'> +7.3306701e+01 </wgt>
<wgt id='1654'> +7.3346044e+01 </wgt>
<wgt id='1655'> +7.3411171e+01 </wgt>
<wgt id='1656'> +7.3289890e+01 </wgt>
<wgt id='1657'> +7.3302898e+01 </wgt>
<wgt id='1658'> +7.3302881e+01 </wgt>
<wgt id='1659'> +7.3334724e+01 </wgt>
<wgt id='1660'> +7.3300932e+01 </wgt>
<wgt id='1661'> +7.3312379e+01 </wgt>
<wgt id='1662'> +7.3343411e+01 </wgt>
<wgt id='1663'> +7.3293523e+01 </wgt>
<wgt id='1664'> +7.3349216e+01 </wgt>
<wgt id='1665'> +7.3353413e+01 </wgt>
<wgt id='1666'> +7.3348194e+01 </wgt>
<wgt id='1667'> +7.3333616e+01 </wgt>
<wgt id='1668'> +7.3353967e+01 </wgt>
<wgt id='1669'> +7.3356552e+01 </wgt>
<wgt id='1670'> +7.2880531e+01 </wgt>
<wgt id='1671'> +7.3130549e+01 </wgt>
<wgt id='1672'> +7.4231223e+01 </wgt>
<wgt id='1673'> +7.4022209e+01 </wgt>
<wgt id='1674'> +7.3266397e+01 </wgt>
<wgt id='1675'> +7.4223776e+01 </wgt>
<wgt id='1676'> +7.3754937e+01 </wgt>
<wgt id='1677'> +7.6720183e+01 </wgt>
<wgt id='1678'> +7.3679405e+01 </wgt>
<wgt id='1679'> +7.4254884e+01 </wgt>
<wgt id='1680'> +7.4572400e+01 </wgt>
<wgt id='1681'> +7.4081451e+01 </wgt>
<wgt id='1682'> +7.4357898e+01 </wgt>
<wgt id='1683'> +7.4239863e+01 </wgt>
<wgt id='1684'> +7.4453570e+01 </wgt>
<wgt id='1685'> +7.4253664e+01 </wgt>
<wgt id='1686'> +7.4075830e+01 </wgt>
<wgt id='1687'> +7.4463012e+01 </wgt>
<wgt id='1688'> +7.4194170e+01 </wgt>
<wgt id='1689'> +7.3348944e+01 </wgt>
<wgt id='1690'> +7.4456406e+01 </wgt>
<wgt id='1691'> +7.4468778e+01 </wgt>
<wgt id='1692'> +7.4636910e+01 </wgt>
<wgt id='1693'> +7.4176339e+01 </wgt>
<wgt id='1694'> +7.4114304e+01 </wgt>
<wgt id='1695'> +7.4256007e+01 </wgt>
<wgt id='1696'> +7.3844857e+01 </wgt>
<wgt id='1697'> +7.4321521e+01 </wgt>
<wgt id='1698'> +7.4106020e+01 </wgt>
<wgt id='1699'> +7.4368456e+01 </wgt>
<wgt id='1700'> +7.4151116e+01 </wgt>
<wgt id='1701'> +7.4476508e+01 </wgt>
<wgt id='1702'> +7.4293168e+01 </wgt>
<wgt id='1703'> +7.3203798e+01 </wgt>
<wgt id='1704'> +7.4937235e+01 </wgt>
<wgt id='1705'> +7.3343618e+01 </wgt>
<wgt id='1706'> +7.3044831e+01 </wgt>
<wgt id='1707'> +7.3392024e+01 </wgt>
<wgt id='1708'> +7.3131771e+01 </wgt>
<wgt id='1709'> +7.3664301e+01 </wgt>
<wgt id='1710'> +7.1587469e+01 </wgt>
<wgt id='1711'> +7.3209635e+01 </wgt>
<wgt id='1712'> +7.3266409e+01 </wgt>
<wgt id='1713'> +7.2659062e+01 </wgt>
<wgt id='1714'> +7.3049822e+01 </wgt>
<wgt id='1715'> +7.4184803e+01 </wgt>
<wgt id='1716'> +7.3280823e+01 </wgt>
<wgt id='1717'> +7.3476835e+01 </wgt>
<wgt id='1718'> +7.3538072e+01 </wgt>
<wgt id='1719'> +7.3048214e+01 </wgt>
<wgt id='1720'> +7.2740333e+01 </wgt>
<wgt id='1721'> +7.2865141e+01 </wgt>
<wgt id='1722'> +7.4199866e+01 </wgt>
<wgt id='1723'> +7.3228236e+01 </wgt>
<wgt id='1724'> +7.3187509e+01 </wgt>
<wgt id='1725'> +7.3897731e+01 </wgt>
<wgt id='1726'> +7.3729643e+01 </wgt>
<wgt id='1727'> +7.5212107e+01 </wgt>
<wgt id='1728'> +7.3356111e+01 </wgt>
<wgt id='1729'> +7.3610359e+01 </wgt>
<wgt id='1730'> +7.3010584e+01 </wgt>
<wgt id='1731'> +7.3520711e+01 </wgt>
<wgt id='1732'> +7.3591058e+01 </wgt>
<wgt id='1733'> +7.3679861e+01 </wgt>
<wgt id='1734'> +7.3163083e+01 </wgt>
<wgt id='1735'> +7.3408361e+01 </wgt>
<wgt id='1736'> +7.2880531e+01 </wgt>
<wgt id='1737'> +7.3130549e+01 </wgt>
<wgt id='1738'> +7.5146243e+01 </wgt>
<wgt id='1739'> +7.4998386e+01 </wgt>
<wgt id='1740'> +7.5293579e+01 </wgt>
<wgt id='1741'> +7.5432836e+01 </wgt>
<wgt id='1742'> +7.4860400e+01 </wgt>
<wgt id='1743'> +7.5281019e+01 </wgt>
<wgt id='1744'> +7.5011659e+01 </wgt>
<wgt id='1745'> +7.5398607e+01 </wgt>
<wgt id='1746'> +7.4901922e+01 </wgt>
<wgt id='1747'> +7.5290650e+01 </wgt>
<wgt id='1748'> +7.5006036e+01 </wgt>
<wgt id='1749'> +7.5023612e+01 </wgt>
<wgt id='1750'> +7.5269957e+01 </wgt>
<wgt id='1751'> +7.4777701e+01 </wgt>
<wgt id='1752'> +7.5518865e+01 </wgt>
<wgt id='1753'> +7.5149856e+01 </wgt>
<wgt id='1754'> +7.5052026e+01 </wgt>
<wgt id='1755'> +7.5396787e+01 </wgt>
<wgt id='1756'> +7.4820112e+01 </wgt>
<wgt id='1757'> +7.4820215e+01 </wgt>
<wgt id='1758'> +7.5480628e+01 </wgt>
<wgt id='1759'> +7.5593612e+01 </wgt>
<wgt id='1760'> +7.4579965e+01 </wgt>
<wgt id='1761'> +7.4813613e+01 </wgt>
<wgt id='1762'> +7.4989283e+01 </wgt>
<wgt id='1763'> +7.5466822e+01 </wgt>
<wgt id='1764'> +7.4963287e+01 </wgt>
<wgt id='1765'> +7.4874542e+01 </wgt>
<wgt id='1766'> +7.5513370e+01 </wgt>
<wgt id='1767'> +7.5146243e+01 </wgt>
<wgt id='1768'> +7.5148154e+01 </wgt>
<wgt id='1769'> +7.5111107e+01 </wgt>
<wgt id='1770'> +7.5142436e+01 </wgt>
<wgt id='1771'> +7.5121111e+01 </wgt>
<wgt id='1772'> +7.5449392e+01 </wgt>
<wgt id='1773'> +7.4263087e+01 </wgt>
<wgt id='1774'> +7.4689790e+01 </wgt>
<wgt id='1775'> +7.5564342e+01 </wgt>
<wgt id='1776'> +7.6781790e+01 </wgt>
<wgt id='1777'> +7.3620918e+01 </wgt>
<wgt id='1778'> +7.5202644e+01 </wgt>
<wgt id='1779'> +7.3512868e+01 </wgt>
<wgt id='1780'> +7.4353240e+01 </wgt>
<wgt id='1781'> +7.1084072e+01 </wgt>
<wgt id='1782'> +7.1001989e+01 </wgt>
<wgt id='1783'> +7.1154519e+01 </wgt>
<wgt id='1784'> +7.1275992e+01 </wgt>
<wgt id='1785'> +7.0881143e+01 </wgt>
<wgt id='1786'> +7.1308554e+01 </wgt>
<wgt id='1787'> +7.0848888e+01 </wgt>
<wgt id='1788'> +7.1470297e+01 </wgt>
<wgt id='1789'> +7.0696132e+01 </wgt>
<wgt id='1790'> +7.1151021e+01 </wgt>
<wgt id='1791'> +7.1008618e+01 </wgt>
<wgt id='1792'> +7.1257967e+01 </wgt>
<wgt id='1793'> +7.0899543e+01 </wgt>
<wgt id='1794'> +7.0816220e+01 </wgt>
<wgt id='1795'> +7.1343262e+01 </wgt>
<wgt id='1796'> +7.0967092e+01 </wgt>
<wgt id='1797'> +7.1200358e+01 </wgt>
<wgt id='1798'> +7.1005286e+01 </wgt>
<wgt id='1799'> +7.1128465e+01 </wgt>
<wgt id='1800'> +7.0972975e+01 </wgt>
<wgt id='1801'> +7.1174229e+01 </wgt>
<wgt id='1802'> +7.0183874e+01 </wgt>
<wgt id='1803'> +7.1829554e+01 </wgt>
<wgt id='1804'> +7.1105526e+01 </wgt>
<wgt id='1805'> +7.1022500e+01 </wgt>
<wgt id='1806'> +7.0903283e+01 </wgt>
<wgt id='1807'> +7.0996527e+01 </wgt>
<wgt id='1808'> +7.1111912e+01 </wgt>
<wgt id='1809'> +7.1158037e+01 </wgt>
<wgt id='1810'> +7.1083839e+01 </wgt>
<wgt id='1811'> +7.1197067e+01 </wgt>
<wgt id='1812'> +7.0813389e+01 </wgt>
<wgt id='1813'> +7.1192855e+01 </wgt>
<wgt id='1814'> +7.0967424e+01 </wgt>
<wgt id='1815'> +7.0883464e+01 </wgt>
<wgt id='1816'> +7.1334511e+01 </wgt>
<wgt id='1817'> +7.0698864e+01 </wgt>
<wgt id='1818'> +7.1628282e+01 </wgt>
<wgt id='1819'> +7.2391592e+01 </wgt>
<wgt id='1820'> +6.9807486e+01 </wgt>
<wgt id='1821'> +7.0776505e+01 </wgt>
<wgt id='1822'> +7.0233978e+01 </wgt>
<wgt id='1823'> +7.0483646e+01 </wgt>
<wgt id='1824'> +7.3324676e+01 </wgt>
<wgt id='1825'> +7.3317480e+01 </wgt>
<wgt id='1826'> +7.3309959e+01 </wgt>
<wgt id='1827'> +7.3302467e+01 </wgt>
<wgt id='1828'> +7.3295007e+01 </wgt>
<wgt id='1829'> +7.3287493e+01 </wgt>
<wgt id='1830'> +7.3280184e+01 </wgt>
<wgt id='1831'> +7.3272906e+01 </wgt>
<wgt id='1832'> +7.3265378e+01 </wgt>
<wgt id='1833'> +7.3257816e+01 </wgt>
<wgt id='1834'> +7.3250549e+01 </wgt>
<wgt id='1835'> +7.3243097e+01 </wgt>
<wgt id='1836'> +7.3235492e+01 </wgt>
<wgt id='1837'> +7.3228384e+01 </wgt>
<wgt id='1838'> +7.3220680e+01 </wgt>
<wgt id='1839'> +7.3213240e+01 </wgt>
<wgt id='1840'> +7.3206139e+01 </wgt>
<wgt id='1841'> +7.3198396e+01 </wgt>
<wgt id='1842'> +7.3191149e+01 </wgt>
<wgt id='1843'> +7.3183616e+01 </wgt>
<wgt id='1844'> +7.3176207e+01 </wgt>
<wgt id='1845'> +7.3168949e+01 </wgt>
<wgt id='1846'> +7.3161403e+01 </wgt>
<wgt id='1847'> +7.3154022e+01 </wgt>
<wgt id='1848'> +7.3146156e+01 </wgt>
<wgt id='1849'> +7.3139175e+01 </wgt>
<wgt id='1850'> +7.3131642e+01 </wgt>
<wgt id='1851'> +7.3123966e+01 </wgt>
<wgt id='1852'> +7.3117077e+01 </wgt>
<wgt id='1853'> +7.3109314e+01 </wgt>
<wgt id='1854'> +7.3101804e+01 </wgt>
<wgt id='1855'> +7.2708280e+01 </wgt>
<wgt id='1856'> +7.2366033e+01 </wgt>
<wgt id='1857'> +7.3167324e+01 </wgt>
<wgt id='1858'> +7.1802223e+01 </wgt>
<wgt id='1859'> +7.2376139e+01 </wgt>
<wgt id='1860'> +7.3023075e+01 </wgt>
<wgt id='1861'> +7.2843688e+01 </wgt>
<wgt id='1862'> +7.3472815e+01 </wgt>
<wgt id='1863'> +7.3089617e+01 </wgt>
<wgt id='1864'> +7.2604945e+01 </wgt>
<wgt id='1865'> +7.2448711e+01 </wgt>
<wgt id='1866'> +7.4261562e+01 </wgt>
<wgt id='1867'> +7.1381512e+01 </wgt>
<wgt id='1868'> +7.1502095e+01 </wgt>
<wgt id='1869'> +7.1568213e+01 </wgt>
<wgt id='1870'> +7.2095707e+01 </wgt>
<wgt id='1871'> +7.3472069e+01 </wgt>
<wgt id='1872'> +7.2529515e+01 </wgt>
<wgt id='1873'> +7.2606676e+01 </wgt>
<wgt id='1874'> +7.2896344e+01 </wgt>
<wgt id='1875'> +7.3312029e+01 </wgt>
<wgt id='1876'> +7.2523345e+01 </wgt>
<wgt id='1877'> +7.2723566e+01 </wgt>
<wgt id='1878'> +7.2688641e+01 </wgt>
<wgt id='1879'> +7.2443887e+01 </wgt>
<wgt id='1880'> +7.2520012e+01 </wgt>
<wgt id='1881'> +7.2456699e+01 </wgt>
<wgt id='1882'> +7.2954409e+01 </wgt>
<wgt id='1883'> +7.2879072e+01 </wgt>
<wgt id='1884'> +7.2617237e+01 </wgt>
<wgt id='1885'> +7.2612601e+01 </wgt>
<wgt id='1886'> +7.3009343e+01 </wgt>
<wgt id='1887'> +7.2631191e+01 </wgt>
<wgt id='1888'> +7.2679384e+01 </wgt>
<wgt id='1889'> +7.2673595e+01 </wgt>
<wgt id='1890'> +7.2711801e+01 </wgt>
<wgt id='1891'> +7.2729924e+01 </wgt>
<wgt id='1892'> +7.2766061e+01 </wgt>
<wgt id='1893'> +7.2673866e+01 </wgt>
<wgt id='1894'> +7.2589763e+01 </wgt>
<wgt id='1895'> +7.2651241e+01 </wgt>
<wgt id='1896'> +7.2621316e+01 </wgt>
<wgt id='1897'> +7.2652643e+01 </wgt>
<wgt id='1898'> +7.2823006e+01 </wgt>
<wgt id='1899'> +7.2689814e+01 </wgt>
<wgt id='1900'> +7.2668530e+01 </wgt>
<wgt id='1901'> +7.2718208e+01 </wgt>
<wgt id='1902'> +7.2632597e+01 </wgt>
<wgt id='1903'> +7.2782980e+01 </wgt>
<wgt id='1904'> +7.2652307e+01 </wgt>
<wgt id='1905'> +7.2750655e+01 </wgt>
<wgt id='1906'> +7.2699706e+01 </wgt>
<wgt id='1907'> +7.2710117e+01 </wgt>
<wgt id='1908'> +7.2722538e+01 </wgt>
<wgt id='1909'> +7.2722920e+01 </wgt>
<wgt id='1910'> +7.2735060e+01 </wgt>
<wgt id='1911'> +7.2659111e+01 </wgt>
<wgt id='1912'> +7.2712633e+01 </wgt>
<wgt id='1913'> +7.2760001e+01 </wgt>
<wgt id='1914'> +7.2735587e+01 </wgt>
<wgt id='1915'> +7.2740003e+01 </wgt>
<wgt id='1916'> +7.2732127e+01 </wgt>
<wgt id='1917'> +7.2692417e+01 </wgt>
<wgt id='1918'> +7.2682773e+01 </wgt>
<wgt id='1919'> +7.2734324e+01 </wgt>
<wgt id='1920'> +7.2690433e+01 </wgt>
<wgt id='1921'> +7.2698421e+01 </wgt>
<wgt id='1922'> +7.2679305e+01 </wgt>
<wgt id='1923'> +7.2732798e+01 </wgt>
<wgt id='1924'> +7.2685081e+01 </wgt>
<wgt id='1925'> +7.2685157e+01 </wgt>
<wgt id='1926'> +7.2764946e+01 </wgt>
<wgt id='1927'> +7.2710191e+01 </wgt>
<wgt id='1928'> +7.2669091e+01 </wgt>
<wgt id='1929'> +7.2714150e+01 </wgt>
<wgt id='1930'> +7.2716316e+01 </wgt>
<wgt id='1931'> +7.2768006e+01 </wgt>
<wgt id='1932'> +7.2723070e+01 </wgt>
<wgt id='1933'> +7.2750955e+01 </wgt>
<wgt id='1934'> +7.2701234e+01 </wgt>
<wgt id='1935'> +7.2688844e+01 </wgt>
<wgt id='1936'> +7.2760270e+01 </wgt>
<wgt id='1937'> +7.2738654e+01 </wgt>
<wgt id='1938'> +7.2692111e+01 </wgt>
<wgt id='1939'> +7.2669773e+01 </wgt>
<wgt id='1940'> +7.2711449e+01 </wgt>
<wgt id='1941'> +7.2780614e+01 </wgt>
<wgt id='1942'> +7.2652768e+01 </wgt>
<wgt id='1943'> +7.2664976e+01 </wgt>
<wgt id='1944'> +7.2664947e+01 </wgt>
<wgt id='1945'> +7.2697485e+01 </wgt>
<wgt id='1946'> +7.2662246e+01 </wgt>
<wgt id='1947'> +7.2674080e+01 </wgt>
<wgt id='1948'> +7.2708918e+01 </wgt>
<wgt id='1949'> +7.2654025e+01 </wgt>
<wgt id='1950'> +7.2713503e+01 </wgt>
<wgt id='1951'> +7.2720054e+01 </wgt>
<wgt id='1952'> +7.2713209e+01 </wgt>
<wgt id='1953'> +7.2696752e+01 </wgt>
<wgt id='1954'> +7.2720373e+01 </wgt>
<wgt id='1955'> +7.2722272e+01 </wgt>
<wgt id='1956'> +7.2707819e+01 </wgt>
<wgt id='1957'> +7.2710538e+01 </wgt>
<wgt id='1958'> +7.2708681e+01 </wgt>
<wgt id='1959'> +7.2708793e+01 </wgt>
<wgt id='1960'> +7.2709530e+01 </wgt>
<wgt id='1961'> +7.2708458e+01 </wgt>
<wgt id='1962'> +7.2710827e+01 </wgt>
</rwgt>
</event>
<event npLO=" -1 " npNLO=" 0 ">
 6      0 +1.5146096e+02 2.04876520e+01 7.54677110e-03 1.17382710e-01
        3 -1    0    0  501    0 +0.0000000000e+00 +0.0000000000e+00 +7.0114782000e+01 7.0114782000e+01 0.0000000000e+00 0.0000e+00 9.0000e+00
       -3 -1    0    0    0  501 +0.0000000000e+00 +0.0000000000e+00 -3.1796145000e+01 3.1796145000e+01 0.0000000000e+00 0.0000e+00 9.0000e+00
       23  2    1    2    0    0 +0.0000000000e+00 +0.0000000000e+00 +3.8318638000e+01 1.0191093000e+02 9.4432617000e+01 0.0000e+00 0.0000e+00
       15  1    3    3    0    0 +2.5583592000e+01 +2.7796441000e+01 +4.7955516000e+01 6.1074148000e+01 1.7770000000e+00 0.0000e+00 9.0000e+00
      -15  1    3    3    0    0 -8.3093383000e+00 -1.5433636000e+01 -2.6830708000e-01 1.7620214000e+01 1.7770000000e+00 0.0000e+00 9.0000e+00
       22  1    3    3    0    0 -1.7274254000e+01 -1.2362805000e+01 -9.3685711000e+00 2.3216566000e+01 0.0000000000e+00 0.0000e+00 9.0000e+00
#aMCatNLO 1  0  0  2  1 0.59915828E+01 0.00000000E+00 -9  6  0 0.00000000E+00 0.00000000E+00 0.00000000E+00 0.00000000E+00 0.00000000E+00
<rwgt>
<wgt id='1001'> +1.5146000e+02 </wgt>
<wgt id='1002'> +1.5146000e+02 </wgt>
<wgt id='1003'> +1.3664000e+02 </wgt>
<wgt id='1004'> +1.3517000e+02 </wgt>
<wgt id='1005'> +1.2050000e+02 </wgt>
<wgt id='1006'> +1.3983000e+02 </wgt>
<wgt id='1007'> +1.2553000e+02 </wgt>
<wgt id='1008'> +1.5932000e+02 </wgt>
<wgt id='1009'> +1.4450000e+02 </wgt>
<wgt id='1010'> +1.4818000e+02 </wgt>
<wgt id='1011'> +1.5442000e+02 </wgt>
<wgt id='1012'> +2.1187000e+02 </wgt>
<wgt id='1013'> +1.8757000e+02 </wgt>
<wgt id='1014'> +1.4351000e+02 </wgt>
<wgt id='1015'> +1.3281000e+02 </wgt>
<wgt id='1016'> +1.6118000e+02 </wgt>
<wgt id='1017'> +1.5955000e+02 </wgt>
<wgt id='1018'> +1.5770000e+02 </wgt>
<wgt id='1019'> +1.6763000e+02 </wgt>
<wgt id='1020'> +1.5890000e+02 </wgt>
<wgt id='1021'> +1.4496000e+02 </wgt>
<wgt id='1022'> +1.2765000e+02 </wgt>
<wgt id='1023'> +1.3074000e+02 </wgt>
<wgt id='1024'> +1.6213000e+02 </wgt>
<wgt id='1025'> +1.5271000e+02 </wgt>
<wgt id='1026'> +1.2888000e+02 </wgt>
<wgt id='1027'> +1.3675000e+02 </wgt>
<wgt id='1028'> +1.7651000e+02 </wgt>
<wgt id='1029'> +1.3596000e+02 </wgt>
<wgt id='1030'> +1.5433000e+02 </wgt>
<wgt id='1031'> +1.3031000e+02 </wgt>
<wgt id='1032'> +1.3440000e+02 </wgt>
<wgt id='1033'> +1.2587000e+02 </wgt>
<wgt id='1034'> +2.0956000e+02 </wgt>
<wgt id='1035'> +1.5757000e+02 </wgt>
<wgt id='1036'> +1.6291000e+02 </wgt>
<wgt id='1037'> +1.3263000e+02 </wgt>
<wgt id='1038'> +1.3699000e+02 </wgt>
<wgt id='1039'> +1.4464000e+02 </wgt>
<wgt id='1040'> +1.8203000e+02 </wgt>
<wgt id='1041'> +1.4226000e+02 </wgt>
<wgt id='1042'> +1.4060000e+02 </wgt>
<wgt id='1043'> +1.4777000e+02 </wgt>
<wgt id='1044'> +1.4595000e+02 </wgt>
<wgt id='1045'> +1.4903000e+02 </wgt>
<wgt id='1046'> +1.6249000e+02 </wgt>
<wgt id='1047'> +1.6090000e+02 </wgt>
<wgt id='1048'> +1.4304000e+02 </wgt>
<wgt id='1049'> +1.6765000e+02 </wgt>
<wgt id='1050'> +1.5369000e+02 </wgt>
<wgt id='1051'> +1.3380000e+02 </wgt>
<wgt id='1052'> +1.3092000e+02 </wgt>
<wgt id='1053'> +1.4985000e+02 </wgt>
<wgt id='1054'> +1.5023000e+02 </wgt>
<wgt id='1055'> +2.0592000e+02 </wgt>
<wgt id='1056'> +1.5538000e+02 </wgt>
<wgt id='1057'> +1.5502000e+02 </wgt>
<wgt id='1058'> +1.5194000e+02 </wgt>
<wgt id='1059'> +1.2338000e+02 </wgt>
<wgt id='1060'> +1.4015000e+02 </wgt>
<wgt id='1061'> +1.3964000e+02 </wgt>
<wgt id='1062'> +1.5036000e+02 </wgt>
<wgt id='1063'> +1.4324000e+02 </wgt>
<wgt id='1064'> +1.3816000e+02 </wgt>
<wgt id='1065'> +1.5217000e+02 </wgt>
<wgt id='1066'> +1.7732000e+02 </wgt>
<wgt id='1067'> +1.5148000e+02 </wgt>
<wgt id='1068'> +1.4396000e+02 </wgt>
<wgt id='1069'> +2.1301000e+02 </wgt>
<wgt id='1070'> +1.4711000e+02 </wgt>
<wgt id='1071'> +1.6701000e+02 </wgt>
<wgt id='1072'> +1.4843000e+02 </wgt>
<wgt id='1073'> +1.6710000e+02 </wgt>
<wgt id='1074'> +2.0152000e+02 </wgt>
<wgt id='1075'> +2.1328000e+02 </wgt>
<wgt id='1076'> +1.5289000e+02 </wgt>
<wgt id='1077'> +1.3678000e+02 </wgt>
<wgt id='1078'> +1.9303000e+02 </wgt>
<wgt id='1079'> +1.6325000e+02 </wgt>
<wgt id='1080'> +1.5337000e+02 </wgt>
<wgt id='1081'> +1.6828000e+02 </wgt>
<wgt id='1082'> +1.4190000e+02 </wgt>
<wgt id='1083'> +1.5366000e+02 </wgt>
<wgt id='1084'> +1.3512000e+02 </wgt>
<wgt id='1085'> +1.5337000e+02 </wgt>
<wgt id='1086'> +1.3808000e+02 </wgt>
<wgt id='1087'> +1.4121000e+02 </wgt>
<wgt id='1088'> +1.5641000e+02 </wgt>
<wgt id='1089'> +1.5667000e+02 </wgt>
<wgt id='1090'> +1.3787000e+02 </wgt>
<wgt id='1091'> +1.5490000e+02 </wgt>
<wgt id='1092'> +1.4116000e+02 </wgt>
<wgt id='1093'> +1.3566000e+02 </wgt>
<wgt id='1094'> +1.5361000e+02 </wgt>
<wgt id='1095'> +1.4825000e+02 </wgt>
<wgt id='1096'> +1.5721000e+02 </wgt>
<wgt id='1097'> +1.3485000e+02 </wgt>
<wgt id='1098'> +1.6983000e+02 </wgt>
<wgt id='1099'> +1.4913000e+02 </wgt>
<wgt id='1100'> +1.4562000e+02 </wgt>
<wgt id='1101'> +1.3425000e+02 </wgt>
<wgt id='1102'> +1.2273000e+02 </wgt>
<wgt id='1103'> +1.4577000e+02 </wgt>
<wgt id='1104'> +1.5093000e+02 </wgt>
<wgt id='1105'> +1.5146096e+02 </wgt>
<wgt id='1106'> +7.2320746e+01 </wgt>
<wgt id='1107'> +7.9949029e+01 </wgt>
<wgt id='1108'> +8.5490435e+01 </wgt>
<wgt id='1109'> +8.1675473e+01 </wgt>
<wgt id='1110'> +9.0210340e+01 </wgt>
<wgt id='1111'> +6.5019728e+01 </wgt>
<wgt id='1112'> +6.2066182e+01 </wgt>
<wgt id='1113'> +6.8673882e+01 </wgt>
<wgt id='1114'> +9.1753039e+01 </wgt>
<wgt id='1115'> +6.5188948e+01 </wgt>
<wgt id='1116'> +9.0719380e+01 </wgt>
<wgt id='1117'> +9.2706609e+01 </wgt>
<wgt id='1118'> +9.3630828e+01 </wgt>
<wgt id='1119'> +9.3792328e+01 </wgt>
<wgt id='1120'> +7.3444380e+01 </wgt>
<wgt id='1121'> +8.6175794e+01 </wgt>
<wgt id='1122'> +1.0303335e+02 </wgt>
<wgt id='1123'> +9.2594877e+01 </wgt>
<wgt id='1124'> +8.7468144e+01 </wgt>
<wgt id='1125'> +8.9541787e+01 </wgt>
<wgt id='1126'> +1.0182629e+02 </wgt>
<wgt id='1127'> +9.8534965e+01 </wgt>
<wgt id='1128'> +9.4917480e+01 </wgt>
<wgt id='1129'> +8.5026260e+01 </wgt>
<wgt id='1130'> +9.1724620e+01 </wgt>
<wgt id='1131'> +7.7358935e+01 </wgt>
<wgt id='1132'> +1.0166826e+02 </wgt>
<wgt id='1133'> +9.7375302e+01 </wgt>
<wgt id='1134'> +1.0676225e+02 </wgt>
<wgt id='1135'> +9.2875005e+01 </wgt>
<wgt id='1136'> +9.2733380e+01 </wgt>
<wgt id='1137'> +8.5742821e+01 </wgt>
<wgt id='1138'> +1.0527516e+02 </wgt>
<wgt id='1139'> +1.0261637e+02 </wgt>
<wgt id='1140'> +8.8854738e+01 </wgt>
<wgt id='1141'> +8.3043581e+01 </wgt>
<wgt id='1142'> +9.6725780e+01 </wgt>
<wgt id='1143'> +9.2559426e+01 </wgt>
<wgt id='1144'> +7.7637387e+01 </wgt>
<wgt id='1145'> +8.0291379e+01 </wgt>
<wgt id='1146'> +9.2122268e+01 </wgt>
<wgt id='1147'> +8.7871517e+01 </wgt>
<wgt id='1148'> +1.0492435e+02 </wgt>
<wgt id='1149'> +8.8539755e+01 </wgt>
<wgt id='1150'> +9.3334762e+01 </wgt>
<wgt id='1151'> +9.6825038e+01 </wgt>
<wgt id='1152'> +9.5076952e+01 </wgt>
<wgt id='1153'> +8.6697188e+01 </wgt>
<wgt id='1154'> +8.9347345e+01 </wgt>
<wgt id='1155'> +9.4257648e+01 </wgt>
<wgt id='1156'> +9.1758833e+01 </wgt>
<wgt id='1157'> +8.7051726e+01 </wgt>
<wgt id='1158'> +8.1337096e+01 </wgt>
<wgt id='1159'> +9.2493372e+01 </wgt>
<wgt id='1160'> +9.0527291e+01 </wgt>
<wgt id='1161'> +9.8167197e+01 </wgt>
<wgt id='1162'> +1.0014380e+02 </wgt>
<wgt id='1163'> +8.5918400e+01 </wgt>
<wgt id='1164'> +8.7963857e+01 </wgt>
<wgt id='1165'> +9.4127464e+01 </wgt>
<wgt id='1166'> +9.0881792e+01 </wgt>
<wgt id='1167'> +9.4909357e+01 </wgt>
<wgt id='1168'> +8.4489542e+01 </wgt>
<wgt id='1169'> +1.0186727e+02 </wgt>
<wgt id='1170'> +9.4126270e+01 </wgt>
<wgt id='1171'> +9.1860419e+01 </wgt>
<wgt id='1172'> +9.7791996e+01 </wgt>
<wgt id='1173'> +8.5711773e+01 </wgt>
<wgt id='1174'> +8.3266208e+01 </wgt>
<wgt id='1175'> +7.8334449e+01 </wgt>
<wgt id='1176'> +9.3775528e+01 </wgt>
<wgt id='1177'> +9.5951292e+01 </wgt>
<wgt id='1178'> +1.0569618e+02 </wgt>
<wgt id='1179'> +9.1939615e+01 </wgt>
<wgt id='1180'> +9.2691881e+01 </wgt>
<wgt id='1181'> +8.9453219e+01 </wgt>
<wgt id='1182'> +7.9829109e+01 </wgt>
<wgt id='1183'> +9.1962732e+01 </wgt>
<wgt id='1184'> +9.0383734e+01 </wgt>
<wgt id='1185'> +8.6973130e+01 </wgt>
<wgt id='1186'> +8.8595237e+01 </wgt>
<wgt id='1187'> +9.8604683e+01 </wgt>
<wgt id='1188'> +9.9103305e+01 </wgt>
<wgt id='1189'> +9.9058377e+01 </wgt>
<wgt id='1190'> +8.7315887e+01 </wgt>
<wgt id='1191'> +9.3865879e+01 </wgt>
<wgt id='1192'> +9.1807309e+01 </wgt>
<wgt id='1193'> +9.6628977e+01 </wgt>
<wgt id='1194'> +8.4975111e+01 </wgt>
<wgt id='1195'> +9.7311776e+01 </wgt>
<wgt id='1196'> +9.1724620e+01 </wgt>
<wgt id='1197'> +8.9310101e+01 </wgt>
<wgt id='1198'> +1.0039987e+02 </wgt>
<wgt id='1199'> +9.1110464e+01 </wgt>
<wgt id='1200'> +8.6126353e+01 </wgt>
<wgt id='1201'> +1.0727473e+02 </wgt>
<wgt id='1202'> +7.6178245e+01 </wgt>
<wgt id='1203'> +9.9844772e+01 </wgt>
<wgt id='1204'> +9.6180351e+01 </wgt>
<wgt id='1205'> +1.0297207e+02 </wgt>
<wgt id='1206'> +1.0491785e+02 </wgt>
<wgt id='1207'> +9.3872396e+01 </wgt>
<wgt id='1208'> +8.1429200e+01 </wgt>
<wgt id='1209'> +9.7801780e+01 </wgt>
<wgt id='1210'> +9.4993253e+01 </wgt>
<wgt id='1211'> +8.1703467e+01 </wgt>
<wgt id='1212'> +8.4378531e+01 </wgt>
<wgt id='1213'> +9.7803842e+01 </wgt>
<wgt id='1214'> +9.2807323e+01 </wgt>
<wgt id='1215'> +7.9249252e+01 </wgt>
<wgt id='1216'> +8.6606725e+01 </wgt>
<wgt id='1217'> +8.7150122e+01 </wgt>
<wgt id='1218'> +8.6157354e+01 </wgt>
<wgt id='1219'> +8.6276871e+01 </wgt>
<wgt id='1220'> +8.4894485e+01 </wgt>
<wgt id='1221'> +8.5605121e+01 </wgt>
<wgt id='1222'> +8.7703188e+01 </wgt>
<wgt id='1223'> +8.5792910e+01 </wgt>
<wgt id='1224'> +8.7456422e+01 </wgt>
<wgt id='1225'> +8.6092847e+01 </wgt>
<wgt id='1226'> +9.0273282e+01 </wgt>
<wgt id='1227'> +8.7165894e+01 </wgt>
<wgt id='1228'> +8.4764722e+01 </wgt>
<wgt id='1229'> +8.6681987e+01 </wgt>
<wgt id='1230'> +8.4190762e+01 </wgt>
<wgt id='1231'> +8.9499855e+01 </wgt>
<wgt id='1232'> +8.3785601e+01 </wgt>
<wgt id='1233'> +8.6948898e+01 </wgt>
<wgt id='1234'> +8.5147383e+01 </wgt>
<wgt id='1235'> +8.7960675e+01 </wgt>
<wgt id='1236'> +8.8923926e+01 </wgt>
<wgt id='1237'> +8.4425816e+01 </wgt>
<wgt id='1238'> +8.6164510e+01 </wgt>
<wgt id='1239'> +8.6777614e+01 </wgt>
<wgt id='1240'> +8.6387973e+01 </wgt>
<wgt id='1241'> +8.7564988e+01 </wgt>
<wgt id='1242'> +8.6540511e+01 </wgt>
<wgt id='1243'> +8.7347001e+01 </wgt>
<wgt id='1244'> +8.6668059e+01 </wgt>
<wgt id='1245'> +8.7170988e+01 </wgt>
<wgt id='1246'> +8.6268518e+01 </wgt>
<wgt id='1247'> +8.6312251e+01 </wgt>
<wgt id='1248'> +8.6730942e+01 </wgt>
<wgt id='1249'> +8.6137081e+01 </wgt>
<wgt id='1250'> +8.7261454e+01 </wgt>
<wgt id='1251'> +8.6985369e+01 </wgt>
<wgt id='1252'> +8.6710358e+01 </wgt>
<wgt id='1253'> +8.6880620e+01 </wgt>
<wgt id='1254'> +8.6801468e+01 </wgt>
<wgt id='1255'> +8.6302060e+01 </wgt>
<wgt id='1256'> +8.6497027e+01 </wgt>
<wgt id='1257'> +8.6162501e+01 </wgt>
<wgt id='1258'> +8.6614333e+01 </wgt>
<wgt id='1259'> +8.6841706e+01 </wgt>
<wgt id='1260'> +8.6631064e+01 </wgt>
<wgt id='1261'> +8.6893259e+01 </wgt>
<wgt id='1262'> +8.6468717e+01 </wgt>
<wgt id='1263'> +8.6772792e+01 </wgt>
<wgt id='1264'> +8.6970632e+01 </wgt>
<wgt id='1265'> +8.6627375e+01 </wgt>
<wgt id='1266'> +8.6563360e+01 </wgt>
<wgt id='1267'> +8.6590273e+01 </wgt>
<wgt id='1268'> +8.6237189e+01 </wgt>
<wgt id='1269'> +8.6434804e+01 </wgt>
<wgt id='1270'> +8.6746859e+01 </wgt>
<wgt id='1271'> +8.6569370e+01 </wgt>
<wgt id='1272'> +8.6716769e+01 </wgt>
<wgt id='1273'> +8.6622159e+01 </wgt>
<wgt id='1274'> +8.6637027e+01 </wgt>
<wgt id='1275'> +8.6646145e+01 </wgt>
<wgt id='1276'> +8.6520342e+01 </wgt>
<wgt id='1277'> +8.6696558e+01 </wgt>
<wgt id='1278'> +8.6727689e+01 </wgt>
<wgt id='1279'> +8.6609140e+01 </wgt>
<wgt id='1280'> +8.6542998e+01 </wgt>
<wgt id='1281'> +8.6567310e+01 </wgt>
<wgt id='1282'> +8.6660593e+01 </wgt>
<wgt id='1283'> +8.6404444e+01 </wgt>
<wgt id='1284'> +8.6414975e+01 </wgt>
<wgt id='1285'> +8.6598502e+01 </wgt>
<wgt id='1286'> +8.6583495e+01 </wgt>
<wgt id='1287'> +8.6845070e+01 </wgt>
<wgt id='1288'> +8.6607948e+01 </wgt>
<wgt id='1289'> +8.6492392e+01 </wgt>
<wgt id='1290'> +8.6601637e+01 </wgt>
<wgt id='1291'> +8.6621539e+01 </wgt>
<wgt id='1292'> +8.6753184e+01 </wgt>
<wgt id='1293'> +8.6583285e+01 </wgt>
<wgt id='1294'> +8.6698006e+01 </wgt>
<wgt id='1295'> +8.6557687e+01 </wgt>
<wgt id='1296'> +8.6598881e+01 </wgt>
<wgt id='1297'> +8.6599282e+01 </wgt>
<wgt id='1298'> +8.6672652e+01 </wgt>
<wgt id='1299'> +8.6584282e+01 </wgt>
<wgt id='1300'> +8.6585659e+01 </wgt>
<wgt id='1301'> +8.6682125e+01 </wgt>
<wgt id='1302'> +8.6605172e+01 </wgt>
<wgt id='1303'> +8.6637413e+01 </wgt>
<wgt id='1304'> +8.6600618e+01 </wgt>
<wgt id='1305'> +8.6605404e+01 </wgt>
<wgt id='1306'> +8.6572581e+01 </wgt>
<wgt id='1307'> +8.6611994e+01 </wgt>
<wgt id='1308'> +8.6606339e+01 </wgt>
<wgt id='1309'> +8.6563274e+01 </wgt>
<wgt id='1310'> +8.6552142e+01 </wgt>
<wgt id='1311'> +8.6558008e+01 </wgt>
<wgt id='1312'> +8.6557242e+01 </wgt>
<wgt id='1313'> +8.6614933e+01 </wgt>
<wgt id='1314'> +8.6615680e+01 </wgt>
<wgt id='1315'> +8.6573823e+01 </wgt>
<wgt id='1316'> +8.6596529e+01 </wgt>
<wgt id='1317'> +8.4655046e+01 </wgt>
<wgt id='1318'> +8.7925335e+01 </wgt>
<wgt id='1319'> +1.8459955e+01 </wgt>
<wgt id='1320'> +8.0653193e+01 </wgt>
<wgt id='1321'> +8.1002958e+01 </wgt>
<wgt id='1322'> +8.0971069e+01 </wgt>
<wgt id='1323'> +8.4056581e+01 </wgt>
<wgt id='1324'> +7.9154394e+01 </wgt>
<wgt id='1325'> +8.2022732e+01 </wgt>
<wgt id='1326'> +7.9837247e+01 </wgt>
<wgt id='1327'> +8.2677980e+01 </wgt>
<wgt id='1328'> +7.9564087e+01 </wgt>
<wgt id='1329'> +7.8608449e+01 </wgt>
<wgt id='1330'> +8.2219186e+01 </wgt>
<wgt id='1331'> +7.9062711e+01 </wgt>
<wgt id='1332'> +8.2069205e+01 </wgt>
<wgt id='1333'> +7.9620336e+01 </wgt>
<wgt id='1334'> +8.0490718e+01 </wgt>
<wgt id='1335'> +6.8193008e+01 </wgt>
<wgt id='1336'> +9.5112331e+01 </wgt>
<wgt id='1337'> +7.9071937e+01 </wgt>
<wgt id='1338'> +8.2448322e+01 </wgt>
<wgt id='1339'> +8.0338520e+01 </wgt>
<wgt id='1340'> +8.0890814e+01 </wgt>
<wgt id='1341'> +7.9363988e+01 </wgt>
<wgt id='1342'> +8.3047378e+01 </wgt>
<wgt id='1343'> +8.0408805e+01 </wgt>
<wgt id='1344'> +8.0755195e+01 </wgt>
<wgt id='1345'> +7.9649258e+01 </wgt>
<wgt id='1346'> +8.1629969e+01 </wgt>
<wgt id='1347'> +8.0677946e+01 </wgt>
<wgt id='1348'> +8.0513386e+01 </wgt>
<wgt id='1349'> +8.0567193e+01 </wgt>
<wgt id='1350'> +8.0672382e+01 </wgt>
<wgt id='1351'> +8.0713041e+01 </wgt>
<wgt id='1352'> +8.0541450e+01 </wgt>
<wgt id='1353'> +8.0816507e+01 </wgt>
<wgt id='1354'> +8.0201050e+01 </wgt>
<wgt id='1355'> +8.2344292e+01 </wgt>
<wgt id='1356'> +7.9036917e+01 </wgt>
<wgt id='1357'> +8.0816423e+01 </wgt>
<wgt id='1358'> +7.9600486e+01 </wgt>
<wgt id='1359'> +8.0755138e+01 </wgt>
<wgt id='1360'> +7.8550456e+01 </wgt>
<wgt id='1361'> +8.0927244e+01 </wgt>
<wgt id='1362'> +8.0544722e+01 </wgt>
<wgt id='1363'> +8.0527204e+01 </wgt>
<wgt id='1364'> +8.0279395e+01 </wgt>
<wgt id='1365'> +7.7599955e+01 </wgt>
<wgt id='1366'> +8.1647522e+01 </wgt>
<wgt id='1367'> +7.9171052e+01 </wgt>
<wgt id='1368'> +8.1578144e+01 </wgt>
<wgt id='1369'> +8.2169024e+01 </wgt>
<wgt id='1370'> +7.7088042e+01 </wgt>
<wgt id='1371'> +7.9831724e+01 </wgt>
<wgt id='1372'> +7.9713142e+01 </wgt>
<wgt id='1373'> +7.7598122e+01 </wgt>
<wgt id='1374'> +8.0831245e+01 </wgt>
<wgt id='1375'> +8.8950383e+01 </wgt>
<wgt id='1376'> +6.8792510e+01 </wgt>
<wgt id='1377'> +7.8652774e+01 </wgt>
<wgt id='1378'> +8.2283285e+01 </wgt>
<wgt id='1379'> +8.2869951e+01 </wgt>
<wgt id='1380'> +8.0817060e+01 </wgt>
<wgt id='1381'> +8.4289279e+01 </wgt>
<wgt id='1382'> +5.9668486e+01 </wgt>
<wgt id='1383'> +8.2651071e+01 </wgt>
<wgt id='1384'> +8.7577342e+01 </wgt>
<wgt id='1385'> +7.6973937e+01 </wgt>
<wgt id='1386'> +7.7169174e+01 </wgt>
<wgt id='1387'> +7.6752875e+01 </wgt>
<wgt id='1388'> +7.6372637e+01 </wgt>
<wgt id='1389'> +7.8004453e+01 </wgt>
<wgt id='1390'> +7.7077000e+01 </wgt>
<wgt id='1391'> +7.6849542e+01 </wgt>
<wgt id='1392'> +7.7408738e+01 </wgt>
<wgt id='1393'> +7.6669168e+01 </wgt>
<wgt id='1394'> +7.6506340e+01 </wgt>
<wgt id='1395'> +7.7552243e+01 </wgt>
<wgt id='1396'> +7.6148156e+01 </wgt>
<wgt id='1397'> +7.7399386e+01 </wgt>
<wgt id='1398'> +7.6638680e+01 </wgt>
<wgt id='1399'> +7.7211331e+01 </wgt>
<wgt id='1400'> +7.7185045e+01 </wgt>
<wgt id='1401'> +7.6794312e+01 </wgt>
<wgt id='1402'> +7.6310754e+01 </wgt>
<wgt id='1403'> +7.7277499e+01 </wgt>
<wgt id='1404'> +7.8313980e+01 </wgt>
<wgt id='1405'> +7.6315923e+01 </wgt>
<wgt id='1406'> +7.9561974e+01 </wgt>
<wgt id='1407'> +7.2449272e+01 </wgt>
<wgt id='1408'> +7.9790044e+01 </wgt>
<wgt id='1409'> +7.1467660e+01 </wgt>
<wgt id='1410'> +7.7474940e+01 </wgt>
<wgt id='1411'> +7.5672632e+01 </wgt>
<wgt id='1412'> +7.5765625e+01 </wgt>
<wgt id='1413'> +7.8428747e+01 </wgt>
<wgt id='1414'> +7.6810664e+01 </wgt>
<wgt id='1415'> +7.7117331e+01 </wgt>
<wgt id='1416'> +7.7285680e+01 </wgt>
<wgt id='1417'> +7.6784667e+01 </wgt>
<wgt id='1418'> +7.6899727e+01 </wgt>
<wgt id='1419'> +7.7104891e+01 </wgt>
<wgt id='1420'> +7.6852042e+01 </wgt>
<wgt id='1421'> +7.6675431e+01 </wgt>
<wgt id='1422'> +7.5991511e+01 </wgt>
<wgt id='1423'> +7.7982090e+01 </wgt>
<wgt id='1424'> +7.6755794e+01 </wgt>
<wgt id='1425'> +7.7034477e+01 </wgt>
<wgt id='1426'> +7.4717101e+01 </wgt>
<wgt id='1427'> +7.6085255e+01 </wgt>
<wgt id='1428'> +7.5417645e+01 </wgt>
<wgt id='1429'> +7.7999516e+01 </wgt>
<wgt id='1430'> +7.5607253e+01 </wgt>
<wgt id='1431'> +7.4628454e+01 </wgt>
<wgt id='1432'> +7.5909364e+01 </wgt>
<wgt id='1433'> +7.3668301e+01 </wgt>
<wgt id='1434'> +7.6349675e+01 </wgt>
<wgt id='1435'> +7.7117327e+01 </wgt>
<wgt id='1436'> +8.6538610e+01 </wgt>
<wgt id='1437'> +8.6537992e+01 </wgt>
<wgt id='1438'> +8.6571430e+01 </wgt>
<wgt id='1439'> +8.6544338e+01 </wgt>
<wgt id='1440'> +8.6293187e+01 </wgt>
<wgt id='1441'> +8.5417973e+01 </wgt>
<wgt id='1442'> +8.5432658e+01 </wgt>
<wgt id='1443'> +8.6515312e+01 </wgt>
<wgt id='1444'> +8.6333416e+01 </wgt>
<wgt id='1445'> +8.6163307e+01 </wgt>
<wgt id='1446'> +8.6871847e+01 </wgt>
<wgt id='1447'> +8.6491044e+01 </wgt>
<wgt id='1448'> +8.7351805e+01 </wgt>
<wgt id='1449'> +8.6541608e+01 </wgt>
<wgt id='1450'> +8.7482777e+01 </wgt>
<wgt id='1451'> +8.6690217e+01 </wgt>
<wgt id='1452'> +8.6234799e+01 </wgt>
<wgt id='1453'> +8.6451898e+01 </wgt>
<wgt id='1454'> +8.6721528e+01 </wgt>
<wgt id='1455'> +8.6260703e+01 </wgt>
<wgt id='1456'> +8.6517556e+01 </wgt>
<wgt id='1457'> +8.5075810e+01 </wgt>
<wgt id='1458'> +8.7583655e+01 </wgt>
<wgt id='1459'> +8.5979571e+01 </wgt>
<wgt id='1460'> +8.7067221e+01 </wgt>
<wgt id='1461'> +8.7045602e+01 </wgt>
<wgt id='1462'> +8.6925206e+01 </wgt>
<wgt id='1463'> +8.6179032e+01 </wgt>
<wgt id='1464'> +8.7637074e+01 </wgt>
<wgt id='1465'> +9.3843537e+01 </wgt>
<wgt id='1466'> +7.9521561e+01 </wgt>
<wgt id='1467'> +7.9768984e+01 </wgt>
<wgt id='1468'> +8.0724075e+01 </wgt>
<wgt id='1469'> +7.3106854e+01 </wgt>
<wgt id='1470'> +8.1422784e+01 </wgt>
<wgt id='1471'> +7.9187059e+01 </wgt>
<wgt id='1472'> +8.1042065e+01 </wgt>
<wgt id='1473'> +8.0098311e+01 </wgt>
<wgt id='1474'> +8.3389390e+01 </wgt>
<wgt id='1475'> +7.8630039e+01 </wgt>
<wgt id='1476'> +7.7409649e+01 </wgt>
<wgt id='1477'> +8.3893363e+01 </wgt>
<wgt id='1478'> +7.8446528e+01 </wgt>
<wgt id='1479'> +7.8536662e+01 </wgt>
<wgt id='1480'> +8.1678759e+01 </wgt>
<wgt id='1481'> +7.8253954e+01 </wgt>
<wgt id='1482'> +8.2475507e+01 </wgt>
<wgt id='1483'> +7.6934175e+01 </wgt>
<wgt id='1484'> +7.8526778e+01 </wgt>
<wgt id='1485'> +8.0001215e+01 </wgt>
<wgt id='1486'> +8.0224033e+01 </wgt>
<wgt id='1487'> +7.9717213e+01 </wgt>
<wgt id='1488'> +7.9794277e+01 </wgt>
<wgt id='1489'> +7.8970093e+01 </wgt>
<wgt id='1490'> +7.9705939e+01 </wgt>
<wgt id='1491'> +8.0207367e+01 </wgt>
<wgt id='1492'> +7.9106274e+01 </wgt>
<wgt id='1493'> +8.0018729e+01 </wgt>
<wgt id='1494'> +7.9390355e+01 </wgt>
<wgt id='1495'> +7.9151907e+01 </wgt>
<wgt id='1496'> +7.9506083e+01 </wgt>
<wgt id='1497'> +7.9509197e+01 </wgt>
<wgt id='1498'> +7.9722476e+01 </wgt>
<wgt id='1499'> +7.9333306e+01 </wgt>
<wgt id='1500'> +7.9740099e+01 </wgt>
<wgt id='1501'> +7.9862538e+01 </wgt>
<wgt id='1502'> +7.9199521e+01 </wgt>
<wgt id='1503'> +7.9603410e+01 </wgt>
<wgt id='1504'> +7.9312531e+01 </wgt>
<wgt id='1505'> +7.9793887e+01 </wgt>
<wgt id='1506'> +7.9595554e+01 </wgt>
<wgt id='1507'> +7.9466448e+01 </wgt>
<wgt id='1508'> +7.9568224e+01 </wgt>
<wgt id='1509'> +7.9477282e+01 </wgt>
<wgt id='1510'> +7.9512356e+01 </wgt>
<wgt id='1511'> +7.9547303e+01 </wgt>
<wgt id='1512'> +7.9469963e+01 </wgt>
<wgt id='1513'> +7.9366024e+01 </wgt>
<wgt id='1514'> +7.9585312e+01 </wgt>
<wgt id='1515'> +7.9443387e+01 </wgt>
<wgt id='1516'> +7.9573780e+01 </wgt>
<wgt id='1517'> +7.9517029e+01 </wgt>
<wgt id='1518'> +7.9551921e+01 </wgt>
<wgt id='1519'> +7.9546392e+01 </wgt>
<wgt id='1520'> +7.9439422e+01 </wgt>
<wgt id='1521'> +7.9375182e+01 </wgt>
<wgt id='1522'> +7.9248058e+01 </wgt>
<wgt id='1523'> +7.9509843e+01 </wgt>
<wgt id='1524'> +7.9566834e+01 </wgt>
<wgt id='1525'> +7.9582916e+01 </wgt>
<wgt id='1526'> +7.9463347e+01 </wgt>
<wgt id='1527'> +7.9562785e+01 </wgt>
<wgt id='1528'> +7.9485656e+01 </wgt>
<wgt id='1529'> +7.9504642e+01 </wgt>
<wgt id='1530'> +7.9509319e+01 </wgt>
<wgt id='1531'> +7.9457956e+01 </wgt>
<wgt id='1532'> +7.9514093e+01 </wgt>
<wgt id='1533'> +7.9497313e+01 </wgt>
<wgt id='1534'> +7.9532179e+01 </wgt>
<wgt id='1535'> +7.9552767e+01 </wgt>
<wgt id='1536'> +7.9544753e+01 </wgt>
<wgt id='1537'> +7.9450481e+01 </wgt>
<wgt id='1538'> +7.9469140e+01 </wgt>
<wgt id='1539'> +7.9524468e+01 </wgt>
<wgt id='1540'> +7.9491400e+01 </wgt>
<wgt id='1541'> +7.9506165e+01 </wgt>
<wgt id='1542'> +7.9536797e+01 </wgt>
<wgt id='1543'> +7.9538735e+01 </wgt>
<wgt id='1544'> +7.9540187e+01 </wgt>
<wgt id='1545'> +7.9592980e+01 </wgt>
<wgt id='1546'> +7.9547508e+01 </wgt>
<wgt id='1547'> +7.9544254e+01 </wgt>
<wgt id='1548'> +7.9521143e+01 </wgt>
<wgt id='1549'> +7.9528043e+01 </wgt>
<wgt id='1550'> +7.9476106e+01 </wgt>
<wgt id='1551'> +7.9570650e+01 </wgt>
<wgt id='1552'> +7.9573582e+01 </wgt>
<wgt id='1553'> +7.9499653e+01 </wgt>
<wgt id='1554'> +7.9496392e+01 </wgt>
<wgt id='1555'> +7.9512859e+01 </wgt>
<wgt id='1556'> +7.9520262e+01 </wgt>
<wgt id='1557'> +7.9507178e+01 </wgt>
<wgt id='1558'> +7.9483907e+01 </wgt>
<wgt id='1559'> +7.9504049e+01 </wgt>
<wgt id='1560'> +7.9535360e+01 </wgt>
<wgt id='1561'> +7.9512853e+01 </wgt>
<wgt id='1562'> +7.9538319e+01 </wgt>
<wgt id='1563'> +7.9521304e+01 </wgt>
<wgt id='1564'> +7.9537086e+01 </wgt>
<wgt id='1565'> +7.9516327e+01 </wgt>
<wgt id='1566'> +7.9531015e+01 </wgt>
<wgt id='1567'> +7.8147683e+01 </wgt>
<wgt id='1568'> +8.1271736e+01 </wgt>
<wgt id='1569'> +8.3256949e+01 </wgt>
<wgt id='1570'> +8.4795815e+01 </wgt>
<wgt id='1571'> +8.3620361e+01 </wgt>
<wgt id='1572'> +8.2225375e+01 </wgt>
<wgt id='1573'> +7.9793323e+01 </wgt>
<wgt id='1574'> +7.8862802e+01 </wgt>
<wgt id='1575'> +8.0394032e+01 </wgt>
<wgt id='1576'> +8.1960096e+01 </wgt>
<wgt id='1577'> +8.3533051e+01 </wgt>
<wgt id='1578'> +8.2628483e+01 </wgt>
<wgt id='1579'> +8.5989950e+01 </wgt>
<wgt id='1580'> +7.6693379e+01 </wgt>
<wgt id='1581'> +8.1108711e+01 </wgt>
<wgt id='1582'> +8.1342164e+01 </wgt>
<wgt id='1583'> +8.2511967e+01 </wgt>
<wgt id='1584'> +8.3290822e+01 </wgt>
<wgt id='1585'> +8.2353966e+01 </wgt>
<wgt id='1586'> +8.5922777e+01 </wgt>
<wgt id='1587'> +8.0417258e+01 </wgt>
<wgt id='1588'> +8.4351078e+01 </wgt>
<wgt id='1589'> +8.4221655e+01 </wgt>
<wgt id='1590'> +8.3732961e+01 </wgt>
<wgt id='1591'> +8.4377615e+01 </wgt>
<wgt id='1592'> +8.4420361e+01 </wgt>
<wgt id='1593'> +8.2514400e+01 </wgt>
<wgt id='1594'> +8.3335246e+01 </wgt>
<wgt id='1595'> +8.2764791e+01 </wgt>
<wgt id='1596'> +8.3310227e+01 </wgt>
<wgt id='1597'> +8.3580797e+01 </wgt>
<wgt id='1598'> +8.3006758e+01 </wgt>
<wgt id='1599'> +8.3315775e+01 </wgt>
<wgt id='1600'> +8.3161937e+01 </wgt>
<wgt id='1601'> +8.3833462e+01 </wgt>
<wgt id='1602'> +8.3271568e+01 </wgt>
<wgt id='1603'> +8.3423470e+01 </wgt>
<wgt id='1604'> +8.3848250e+01 </wgt>
<wgt id='1605'> +8.3167154e+01 </wgt>
<wgt id='1606'> +8.2998554e+01 </wgt>
<wgt id='1607'> +8.3394793e+01 </wgt>
<wgt id='1608'> +8.3393095e+01 </wgt>
<wgt id='1609'> +8.2908826e+01 </wgt>
<wgt id='1610'> +8.3135073e+01 </wgt>
<wgt id='1611'> +8.3377182e+01 </wgt>
<wgt id='1612'> +8.3161736e+01 </wgt>
<wgt id='1613'> +8.3110656e+01 </wgt>
<wgt id='1614'> +8.3059091e+01 </wgt>
<wgt id='1615'> +8.3127605e+01 </wgt>
<wgt id='1616'> +8.3292923e+01 </wgt>
<wgt id='1617'> +8.3205110e+01 </wgt>
<wgt id='1618'> +8.3284456e+01 </wgt>
<wgt id='1619'> +8.3455743e+01 </wgt>
<wgt id='1620'> +8.3342248e+01 </wgt>
<wgt id='1621'> +8.3306466e+01 </wgt>
<wgt id='1622'> +8.3276118e+01 </wgt>
<wgt id='1623'> +8.3184059e+01 </wgt>
<wgt id='1624'> +8.3033145e+01 </wgt>
<wgt id='1625'> +8.3371727e+01 </wgt>
<wgt id='1626'> +8.3327521e+01 </wgt>
<wgt id='1627'> +8.3246723e+01 </wgt>
<wgt id='1628'> +8.3242845e+01 </wgt>
<wgt id='1629'> +8.3275629e+01 </wgt>
<wgt id='1630'> +8.3249812e+01 </wgt>
<wgt id='1631'> +8.3271269e+01 </wgt>
<wgt id='1632'> +8.3244337e+01 </wgt>
<wgt id='1633'> +8.3256517e+01 </wgt>
<wgt id='1634'> +8.3284331e+01 </wgt>
<wgt id='1635'> +8.3269629e+01 </wgt>
<wgt id='1636'> +8.3274839e+01 </wgt>
<wgt id='1637'> +8.3284660e+01 </wgt>
<wgt id='1638'> +8.3372506e+01 </wgt>
<wgt id='1639'> +8.3263424e+01 </wgt>
<wgt id='1640'> +8.3264574e+01 </wgt>
<wgt id='1641'> +8.3348336e+01 </wgt>
<wgt id='1642'> +8.3195474e+01 </wgt>
<wgt id='1643'> +8.3266748e+01 </wgt>
<wgt id='1644'> +8.3239979e+01 </wgt>
<wgt id='1645'> +8.3240429e+01 </wgt>
<wgt id='1646'> +8.3287747e+01 </wgt>
<wgt id='1647'> +8.3212102e+01 </wgt>
<wgt id='1648'> +8.3268210e+01 </wgt>
<wgt id='1649'> +8.3262388e+01 </wgt>
<wgt id='1650'> +8.3221821e+01 </wgt>
<wgt id='1651'> +8.3228949e+01 </wgt>
<wgt id='1652'> +8.3200213e+01 </wgt>
<wgt id='1653'> +8.3264638e+01 </wgt>
<wgt id='1654'> +8.3231415e+01 </wgt>
<wgt id='1655'> +8.3250928e+01 </wgt>
<wgt id='1656'> +8.3225547e+01 </wgt>
<wgt id='1657'> +8.3259622e+01 </wgt>
<wgt id='1658'> +8.3250835e+01 </wgt>
<wgt id='1659'> +8.3276398e+01 </wgt>
<wgt id='1660'> +8.3255700e+01 </wgt>
<wgt id='1661'> +8.3255656e+01 </wgt>
<wgt id='1662'> +8.3250555e+01 </wgt>
<wgt id='1663'> +8.3248297e+01 </wgt>
<wgt id='1664'> +8.3234079e+01 </wgt>
<wgt id='1665'> +8.3235400e+01 </wgt>
<wgt id='1666'> +8.3247452e+01 </wgt>
<wgt id='1667'> +8.3264263e+01 </wgt>
<wgt id='1668'> +8.3246687e+01 </wgt>
<wgt id='1669'> +8.3253581e+01 </wgt>
<wgt id='1670'> +8.1430831e+01 </wgt>
<wgt id='1671'> +8.4085369e+01 </wgt>
<wgt id='1672'> +7.9520240e+01 </wgt>
<wgt id='1673'> +7.7991236e+01 </wgt>
<wgt id='1674'> +8.6226940e+01 </wgt>
<wgt id='1675'> +7.9490359e+01 </wgt>
<wgt id='1676'> +7.9884940e+01 </wgt>
<wgt id='1677'> +7.9708369e+01 </wgt>
<wgt id='1678'> +8.0502404e+01 </wgt>
<wgt id='1679'> +7.9332283e+01 </wgt>
<wgt id='1680'> +7.9751068e+01 </wgt>
<wgt id='1681'> +7.7592965e+01 </wgt>
<wgt id='1682'> +7.9484100e+01 </wgt>
<wgt id='1683'> +8.5274490e+01 </wgt>
<wgt id='1684'> +7.9452324e+01 </wgt>
<wgt id='1685'> +7.9372272e+01 </wgt>
<wgt id='1686'> +8.1709818e+01 </wgt>
<wgt id='1687'> +7.9993597e+01 </wgt>
<wgt id='1688'> +7.9881250e+01 </wgt>
<wgt id='1689'> +7.9028281e+01 </wgt>
<wgt id='1690'> +7.9269033e+01 </wgt>
<wgt id='1691'> +7.9881202e+01 </wgt>
<wgt id='1692'> +7.8731998e+01 </wgt>
<wgt id='1693'> +7.9993488e+01 </wgt>
<wgt id='1694'> +7.9045179e+01 </wgt>
<wgt id='1695'> +7.9107205e+01 </wgt>
<wgt id='1696'> +7.9525507e+01 </wgt>
<wgt id='1697'> +7.9779768e+01 </wgt>
<wgt id='1698'> +7.8000298e+01 </wgt>
<wgt id='1699'> +7.9729506e+01 </wgt>
<wgt id='1700'> +7.9039050e+01 </wgt>
<wgt id='1701'> +8.0985135e+01 </wgt>
<wgt id='1702'> +7.9279117e+01 </wgt>
<wgt id='1703'> +7.8147683e+01 </wgt>
<wgt id='1704'> +8.1271736e+01 </wgt>
<wgt id='1705'> +8.3255310e+01 </wgt>
<wgt id='1706'> +8.7713294e+01 </wgt>
<wgt id='1707'> +7.9519705e+01 </wgt>
<wgt id='1708'> +8.3318559e+01 </wgt>
<wgt id='1709'> +8.7961608e+01 </wgt>
<wgt id='1710'> +8.2392321e+01 </wgt>
<wgt id='1711'> +8.3496522e+01 </wgt>
<wgt id='1712'> +8.3559870e+01 </wgt>
<wgt id='1713'> +8.4414559e+01 </wgt>
<wgt id='1714'> +8.6129906e+01 </wgt>
<wgt id='1715'> +8.3971977e+01 </wgt>
<wgt id='1716'> +7.9706735e+01 </wgt>
<wgt id='1717'> +8.2472997e+01 </wgt>
<wgt id='1718'> +8.3184890e+01 </wgt>
<wgt id='1719'> +8.3772433e+01 </wgt>
<wgt id='1720'> +8.3732156e+01 </wgt>
<wgt id='1721'> +8.3501277e+01 </wgt>
<wgt id='1722'> +8.3608461e+01 </wgt>
<wgt id='1723'> +8.3409279e+01 </wgt>
<wgt id='1724'> +8.4263415e+01 </wgt>
<wgt id='1725'> +8.1937205e+01 </wgt>
<wgt id='1726'> +8.2723681e+01 </wgt>
<wgt id='1727'> +8.1917611e+01 </wgt>
<wgt id='1728'> +8.3071315e+01 </wgt>
<wgt id='1729'> +8.2450979e+01 </wgt>
<wgt id='1730'> +8.4371663e+01 </wgt>
<wgt id='1731'> +8.3838183e+01 </wgt>
<wgt id='1732'> +8.1739174e+01 </wgt>
<wgt id='1733'> +8.2094608e+01 </wgt>
<wgt id='1734'> +8.4493500e+01 </wgt>
<wgt id='1735'> +8.1036859e+01 </wgt>
<wgt id='1736'> +8.1430831e+01 </wgt>
<wgt id='1737'> +8.4085369e+01 </wgt>
<wgt id='1738'> +9.0400199e+01 </wgt>
<wgt id='1739'> +9.0500743e+01 </wgt>
<wgt id='1740'> +9.0300368e+01 </wgt>
<wgt id='1741'> +9.0451067e+01 </wgt>
<wgt id='1742'> +9.0349242e+01 </wgt>
<wgt id='1743'> +9.0576518e+01 </wgt>
<wgt id='1744'> +9.0224092e+01 </wgt>
<wgt id='1745'> +9.0315077e+01 </wgt>
<wgt id='1746'> +9.0478858e+01 </wgt>
<wgt id='1747'> +9.0770249e+01 </wgt>
<wgt id='1748'> +9.0031777e+01 </wgt>
<wgt id='1749'> +9.0593311e+01 </wgt>
<wgt id='1750'> +9.0205030e+01 </wgt>
<wgt id='1751'> +9.0199301e+01 </wgt>
<wgt id='1752'> +9.0601385e+01 </wgt>
<wgt id='1753'> +9.0243910e+01 </wgt>
<wgt id='1754'> +9.0462040e+01 </wgt>
<wgt id='1755'> +9.0258379e+01 </wgt>
<wgt id='1756'> +9.0460478e+01 </wgt>
<wgt id='1757'> +9.0072127e+01 </wgt>
<wgt id='1758'> +9.0735433e+01 </wgt>
<wgt id='1759'> +9.0340134e+01 </wgt>
<wgt id='1760'> +9.0340292e+01 </wgt>
<wgt id='1761'> +9.0232346e+01 </wgt>
<wgt id='1762'> +9.0105783e+01 </wgt>
<wgt id='1763'> +9.0809692e+01 </wgt>
<wgt id='1764'> +9.0120639e+01 </wgt>
<wgt id='1765'> +9.0441920e+01 </wgt>
<wgt id='1766'> +9.0418479e+01 </wgt>
<wgt id='1767'> +9.0400199e+01 </wgt>
<wgt id='1768'> +7.8506830e+01 </wgt>
<wgt id='1769'> +1.0608640e+02 </wgt>
<wgt id='1770'> +7.4924728e+01 </wgt>
<wgt id='1771'> +9.7276096e+01 </wgt>
<wgt id='1772'> +9.0827835e+01 </wgt>
<wgt id='1773'> +9.0158199e+01 </wgt>
<wgt id='1774'> +9.0174934e+01 </wgt>
<wgt id='1775'> +9.0605753e+01 </wgt>
<wgt id='1776'> +8.9524479e+01 </wgt>
<wgt id='1777'> +9.1245153e+01 </wgt>
<wgt id='1778'> +9.0956247e+01 </wgt>
<wgt id='1779'> +9.0665113e+01 </wgt>
<wgt id='1780'> +8.7806082e+01 </wgt>
<wgt id='1781'> +9.2256825e+01 </wgt>
<wgt id='1782'> +9.2414079e+01 </wgt>
<wgt id='1783'> +9.2105076e+01 </wgt>
<wgt id='1784'> +9.2184772e+01 </wgt>
<wgt id='1785'> +9.2333766e+01 </wgt>
<wgt id='1786'> +9.2407622e+01 </wgt>
<wgt id='1787'> +9.2111000e+01 </wgt>
<wgt id='1788'> +9.2089319e+01 </wgt>
<wgt id='1789'> +9.2417082e+01 </wgt>
<wgt id='1790'> +9.2589493e+01 </wgt>
<wgt id='1791'> +9.1927280e+01 </wgt>
<wgt id='1792'> +9.2385167e+01 </wgt>
<wgt id='1793'> +9.2133256e+01 </wgt>
<wgt id='1794'> +9.2014737e+01 </wgt>
<wgt id='1795'> +9.2504289e+01 </wgt>
<wgt id='1796'> +9.2105995e+01 </wgt>
<wgt id='1797'> +9.2383516e+01 </wgt>
<wgt id='1798'> +9.2374320e+01 </wgt>
<wgt id='1799'> +9.2121876e+01 </wgt>
<wgt id='1800'> +9.2017729e+01 </wgt>
<wgt id='1801'> +9.2492841e+01 </wgt>
<wgt id='1802'> +9.1817446e+01 </wgt>
<wgt id='1803'> +9.2556550e+01 </wgt>
<wgt id='1804'> +9.2933084e+01 </wgt>
<wgt id='1805'> +9.1578304e+01 </wgt>
<wgt id='1806'> +9.2767876e+01 </wgt>
<wgt id='1807'> +9.1547347e+01 </wgt>
<wgt id='1808'> +9.2851283e+01 </wgt>
<wgt id='1809'> +9.1789124e+01 </wgt>
<wgt id='1810'> +9.2257223e+01 </wgt>
<wgt id='1811'> +7.8748097e+01 </wgt>
<wgt id='1812'> +1.1027934e+02 </wgt>
<wgt id='1813'> +7.4851300e+01 </wgt>
<wgt id='1814'> +1.0045633e+02 </wgt>
<wgt id='1815'> +9.3927205e+01 </wgt>
<wgt id='1816'> +9.1321116e+01 </wgt>
<wgt id='1817'> +9.1991435e+01 </wgt>
<wgt id='1818'> +9.2458985e+01 </wgt>
<wgt id='1819'> +9.2349382e+01 </wgt>
<wgt id='1820'> +9.4419364e+01 </wgt>
<wgt id='1821'> +9.2976395e+01 </wgt>
<wgt id='1822'> +9.1941657e+01 </wgt>
<wgt id='1823'> +9.0815165e+01 </wgt>
<wgt id='1824'> +7.9983634e+01 </wgt>
<wgt id='1825'> +7.9955974e+01 </wgt>
<wgt id='1826'> +7.9928677e+01 </wgt>
<wgt id='1827'> +7.9901090e+01 </wgt>
<wgt id='1828'> +7.9873653e+01 </wgt>
<wgt id='1829'> +7.9845725e+01 </wgt>
<wgt id='1830'> +7.9818429e+01 </wgt>
<wgt id='1831'> +7.9790855e+01 </wgt>
<wgt id='1832'> +7.9763585e+01 </wgt>
<wgt id='1833'> +7.9736057e+01 </wgt>
<wgt id='1834'> +7.9708667e+01 </wgt>
<wgt id='1835'> +7.9680727e+01 </wgt>
<wgt id='1836'> +7.9653458e+01 </wgt>
<wgt id='1837'> +7.9625959e+01 </wgt>
<wgt id='1838'> +7.9598710e+01 </wgt>
<wgt id='1839'> +7.9571100e+01 </wgt>
<wgt id='1840'> +7.9543258e+01 </wgt>
<wgt id='1841'> +7.9516001e+01 </wgt>
<wgt id='1842'> +7.9488547e+01 </wgt>
<wgt id='1843'> +7.9461082e+01 </wgt>
<wgt id='1844'> +7.9433601e+01 </wgt>
<wgt id='1845'> +7.9406418e+01 </wgt>
<wgt id='1846'> +7.9378610e+01 </wgt>
<wgt id='1847'> +7.9351365e+01 </wgt>
<wgt id='1848'> +7.9323838e+01 </wgt>
<wgt id='1849'> +7.9296620e+01 </wgt>
<wgt id='1850'> +7.9269190e+01 </wgt>
<wgt id='1851'> +7.9241513e+01 </wgt>
<wgt id='1852'> +7.9214084e+01 </wgt>
<wgt id='1853'> +7.9186563e+01 </wgt>
<wgt id='1854'> +7.9159372e+01 </wgt>
<wgt id='1855'> +8.2736188e+01 </wgt>
<wgt id='1856'> +8.4242564e+01 </wgt>
<wgt id='1857'> +8.3094238e+01 </wgt>
<wgt id='1858'> +8.1706783e+01 </wgt>
<wgt id='1859'> +7.9278522e+01 </wgt>
<wgt id='1860'> +7.8354838e+01 </wgt>
<wgt id='1861'> +7.9901099e+01 </wgt>
<wgt id='1862'> +8.1464765e+01 </wgt>
<wgt id='1863'> +8.3012881e+01 </wgt>
<wgt id='1864'> +8.2110600e+01 </wgt>
<wgt id='1865'> +8.5451149e+01 </wgt>
<wgt id='1866'> +7.6220633e+01 </wgt>
<wgt id='1867'> +8.0609771e+01 </wgt>
<wgt id='1868'> +8.0836581e+01 </wgt>
<wgt id='1869'> +8.1996514e+01 </wgt>
<wgt id='1870'> +8.2740435e+01 </wgt>
<wgt id='1871'> +8.1861781e+01 </wgt>
<wgt id='1872'> +8.5381058e+01 </wgt>
<wgt id='1873'> +7.9900839e+01 </wgt>
<wgt id='1874'> +8.3843222e+01 </wgt>
<wgt id='1875'> +8.3713792e+01 </wgt>
<wgt id='1876'> +8.3201439e+01 </wgt>
<wgt id='1877'> +8.3848431e+01 </wgt>
<wgt id='1878'> +8.3903687e+01 </wgt>
<wgt id='1879'> +8.1985997e+01 </wgt>
<wgt id='1880'> +8.2797630e+01 </wgt>
<wgt id='1881'> +8.2229181e+01 </wgt>
<wgt id='1882'> +8.2808530e+01 </wgt>
<wgt id='1883'> +8.3066234e+01 </wgt>
<wgt id='1884'> +8.2477232e+01 </wgt>
<wgt id='1885'> +8.2785075e+01 </wgt>
<wgt id='1886'> +8.2661128e+01 </wgt>
<wgt id='1887'> +8.3300982e+01 </wgt>
<wgt id='1888'> +8.2743195e+01 </wgt>
<wgt id='1889'> +8.2901794e+01 </wgt>
<wgt id='1890'> +8.3318738e+01 </wgt>
<wgt id='1891'> +8.2648842e+01 </wgt>
<wgt id='1892'> +8.2478527e+01 </wgt>
<wgt id='1893'> +8.2869982e+01 </wgt>
<wgt id='1894'> +8.2862709e+01 </wgt>
<wgt id='1895'> +8.2390127e+01 </wgt>
<wgt id='1896'> +8.2612738e+01 </wgt>
<wgt id='1897'> +8.2854771e+01 </wgt>
<wgt id='1898'> +8.2650453e+01 </wgt>
<wgt id='1899'> +8.2588424e+01 </wgt>
<wgt id='1900'> +8.2538604e+01 </wgt>
<wgt id='1901'> +8.2612437e+01 </wgt>
<wgt id='1902'> +8.2770414e+01 </wgt>
<wgt id='1903'> +8.2688028e+01 </wgt>
<wgt id='1904'> +8.2761946e+01 </wgt>
<wgt id='1905'> +8.2935458e+01 </wgt>
<wgt id='1906'> +8.2819329e+01 </wgt>
<wgt id='1907'> +8.2783834e+01 </wgt>
<wgt id='1908'> +8.2753943e+01 </wgt>
<wgt id='1909'> +8.2667349e+01 </wgt>
<wgt id='1910'> +8.2516215e+01 </wgt>
<wgt id='1911'> +8.2843628e+01 </wgt>
<wgt id='1912'> +8.2807017e+01 </wgt>
<wgt id='1913'> +8.2731469e+01 </wgt>
<wgt id='1914'> +8.2725687e+01 </wgt>
<wgt id='1915'> +8.2757167e+01 </wgt>
<wgt id='1916'> +8.2729966e+01 </wgt>
<wgt id='1917'> +8.2750951e+01 </wgt>
<wgt id='1918'> +8.2720184e+01 </wgt>
<wgt id='1919'> +8.2739615e+01 </wgt>
<wgt id='1920'> +8.2762316e+01 </wgt>
<wgt id='1921'> +8.2746541e+01 </wgt>
<wgt id='1922'> +8.2751317e+01 </wgt>
<wgt id='1923'> +8.2762880e+01 </wgt>
<wgt id='1924'> +8.2846799e+01 </wgt>
<wgt id='1925'> +8.2741397e+01 </wgt>
<wgt id='1926'> +8.2745206e+01 </wgt>
<wgt id='1927'> +8.2824540e+01 </wgt>
<wgt id='1928'> +8.2673773e+01 </wgt>
<wgt id='1929'> +8.2745554e+01 </wgt>
<wgt id='1930'> +8.2720668e+01 </wgt>
<wgt id='1931'> +8.2723681e+01 </wgt>
<wgt id='1932'> +8.2767298e+01 </wgt>
<wgt id='1933'> +8.2693111e+01 </wgt>
<wgt id='1934'> +8.2747034e+01 </wgt>
<wgt id='1935'> +8.2738305e+01 </wgt>
<wgt id='1936'> +8.2704663e+01 </wgt>
<wgt id='1937'> +8.2710123e+01 </wgt>
<wgt id='1938'> +8.2680661e+01 </wgt>
<wgt id='1939'> +8.2742607e+01 </wgt>
<wgt id='1940'> +8.2711338e+01 </wgt>
<wgt id='1941'> +8.2734050e+01 </wgt>
<wgt id='1942'> +8.2703175e+01 </wgt>
<wgt id='1943'> +8.2736159e+01 </wgt>
<wgt id='1944'> +8.2727635e+01 </wgt>
<wgt id='1945'> +8.2753967e+01 </wgt>
<wgt id='1946'> +8.2731832e+01 </wgt>
<wgt id='1947'> +8.2731826e+01 </wgt>
<wgt id='1948'> +8.2729984e+01 </wgt>
<wgt id='1949'> +8.2723701e+01 </wgt>
<wgt id='1950'> +8.2713465e+01 </wgt>
<wgt id='1951'> +8.2716179e+01 </wgt>
<wgt id='1952'> +8.2726881e+01 </wgt>
<wgt id='1953'> +8.2742406e+01 </wgt>
<wgt id='1954'> +8.2727235e+01 </wgt>
<wgt id='1955'> +8.2733754e+01 </wgt>
<wgt id='1956'> +8.2735760e+01 </wgt>
<wgt id='1957'> +8.2738482e+01 </wgt>
<wgt id='1958'> +8.2736623e+01 </wgt>
<wgt id='1959'> +8.2736704e+01 </wgt>
<wgt id='1960'> +8.2737475e+01 </wgt>
<wgt id='1961'> +8.2736375e+01 </wgt>
<wgt id='1962'> +8.2738931e+01 </wgt>
</rwgt>
</event>
</LesHouchesEvents>
